# Region type : patch outlet
# Faces         : 20
# Area          : 4.36243709e-07
# Scale factor  : 1.00000000e+00
# Weight field  : phi
# Time          	weightedAverage(p)	weightedAverage(U)	weightedAverage(T)
100             	1.01325000e+05	(1.00392723e+00 5.18243820e-07 -1.84489561e-14)	3.06610762e+02
200             	1.01325000e+05	(1.01228814e+00 1.00076192e-06 2.97210495e-13)	3.13310161e+02
300             	1.01325000e+05	(1.02863897e+00 -2.45909252e-06 9.60104849e-13)	3.22008530e+02
400             	1.01325000e+05	(1.03642316e+00 -5.47325965e-06 1.44903692e-12)	3.31192820e+02
500             	1.01325000e+05	(1.03732200e+00 -4.99455452e-06 1.82120843e-12)	3.39505490e+02
600             	1.01325000e+05	(1.03929411e+00 -4.30119196e-06 2.04394231e-12)	3.46722125e+02
700             	1.01325000e+05	(1.04140720e+00 -3.91353335e-06 2.19332298e-12)	3.53084671e+02
800             	1.01325000e+05	(1.04313814e+00 -3.51825563e-06 2.20749152e-12)	3.58695699e+02
900             	1.01325000e+05	(1.04470000e+00 -3.16050484e-06 2.14603078e-12)	3.63635345e+02
1000            	1.01325000e+05	(1.04611269e+00 -2.82999365e-06 2.15082251e-12)	3.67984471e+02
1100            	1.01325000e+05	(1.04737240e+00 -2.52928166e-06 2.19164841e-12)	3.71813603e+02
1200            	1.01325000e+05	(1.04849637e+00 -2.25908771e-06 2.26405248e-12)	3.75184596e+02
1300            	1.01325000e+05	(1.04949833e+00 -2.01280761e-06 2.27472285e-12)	3.78152189e+02
1400            	1.01325000e+05	(1.05038991e+00 -1.79428266e-06 2.26869701e-12)	3.80764646e+02
1500            	1.01325000e+05	(1.05118238e+00 -1.59526865e-06 2.27207406e-12)	3.83064465e+02
1600            	1.01325000e+05	(1.05188595e+00 -1.41244798e-06 2.27149581e-12)	3.85089080e+02
1700            	1.01325000e+05	(1.05251001e+00 -1.25110197e-06 2.30025202e-12)	3.86871454e+02
1800            	1.01325000e+05	(1.05306314e+00 -1.11157963e-06 2.26776941e-12)	3.88440598e+02
1900            	1.01325000e+05	(1.05355294e+00 -9.87401059e-07 2.27348733e-12)	3.89822050e+02
2000            	1.01325000e+05	(1.05398644e+00 -8.73086623e-07 2.25456616e-12)	3.91038284e+02
2100            	1.01325000e+05	(1.05436983e+00 -7.76893403e-07 2.27409939e-12)	3.92109082e+02
2200            	1.01325000e+05	(1.05470884e+00 -6.87097210e-07 2.30427580e-12)	3.93051854e+02
2300            	1.01325000e+05	(1.05500836e+00 -6.08068417e-07 2.26202805e-12)	3.93881922e+02
2400            	1.01325000e+05	(1.05527287e+00 -5.34515447e-07 2.25602007e-12)	3.94612774e+02
2500            	1.01325000e+05	(1.05550648e+00 -4.71732130e-07 2.24731799e-12)	3.95256279e+02
2600            	1.01325000e+05	(1.05571240e+00 -4.22264771e-07 2.25502443e-12)	3.95822884e+02
2700            	1.01325000e+05	(1.05589382e+00 -3.65800779e-07 2.27034338e-12)	3.96321784e+02
2800            	1.01325000e+05	(1.05605440e+00 -3.19326850e-07 2.23826508e-12)	3.96761076e+02
2900            	1.01325000e+05	(1.05619616e+00 -2.87354784e-07 2.27153945e-12)	3.97147886e+02
3000            	1.01325000e+05	(1.05632098e+00 -3.18412897e-07 2.25847808e-12)	3.97488403e+02
3100            	1.01325000e+05	(1.05643116e+00 -2.18676965e-07 2.28190431e-12)	3.97788331e+02
3200            	1.01325000e+05	(1.05652827e+00 -1.94967400e-07 2.26848504e-12)	3.98052434e+02
3300            	1.01325000e+05	(1.05661384e+00 -1.70594832e-07 2.25012008e-12)	3.98284994e+02
3400            	1.01325000e+05	(1.05668930e+00 -1.51883254e-07 2.26019659e-12)	3.98489779e+02
3500            	1.01325000e+05	(1.05675579e+00 -1.37454889e-07 2.28740222e-12)	3.98670107e+02
3600            	1.01325000e+05	(1.05681435e+00 -1.20900015e-07 2.25720547e-12)	3.98828900e+02
3700            	1.01325000e+05	(1.05686596e+00 -1.01637294e-07 2.26216079e-12)	3.98968731e+02
3800            	1.01325000e+05	(1.05691147e+00 -9.80888705e-08 2.25049739e-12)	3.99091864e+02
3900            	1.01325000e+05	(1.05695150e+00 -7.98891413e-08 2.28606219e-12)	3.99200293e+02
4000            	1.01325000e+05	(1.05698685e+00 -7.28652956e-08 2.25818674e-12)	3.99295776e+02
4100            	1.01325000e+05	(1.05701768e+00 -5.83553693e-08 2.24000408e-12)	3.99379857e+02
4200            	1.01325000e+05	(1.05704495e+00 -5.79626481e-08 2.25318167e-12)	3.99453898e+02
4300            	1.01325000e+05	(1.05706897e+00 -4.95610180e-08 2.25934852e-12)	3.99519099e+02
4400            	1.01325000e+05	(1.05709027e+00 -4.28469785e-08 2.28004660e-12)	3.99576515e+02
4500            	1.01325000e+05	(1.05710905e+00 -3.56240533e-08 2.27858561e-12)	3.99627075e+02
4600            	1.01325000e+05	(1.05712578e+00 -6.15075592e-08 2.26205011e-12)	3.99671599e+02
4700            	1.01325000e+05	(1.05714029e+00 -8.59234422e-08 2.24975586e-12)	3.99710807e+02
4800            	1.01325000e+05	(1.05715314e+00 -8.44333637e-08 2.26140112e-12)	3.99745334e+02
4900            	1.01325000e+05	(1.05716441e+00 -5.23575297e-08 2.25419997e-12)	3.99775738e+02
5000            	1.01325000e+05	(1.05717441e+00 -4.60858063e-08 2.27482812e-12)	3.99802513e+02
5100            	1.01325000e+05	(1.05718295e+00 2.55256695e-08 2.29550966e-12)	3.99826091e+02
5200            	1.01325000e+05	(1.05719088e+00 -1.20900880e-07 2.25320185e-12)	3.99846853e+02
5300            	1.01325000e+05	(1.05719726e+00 1.00835183e-08 2.27779764e-12)	3.99865137e+02
5400            	1.01325000e+05	(1.05720367e+00 -4.88233882e-08 2.27851968e-12)	3.99881238e+02
5500            	1.01325000e+05	(1.05720872e+00 6.71109751e-09 2.27445138e-12)	3.99895417e+02
5600            	1.01325000e+05	(1.05721373e+00 -4.26645002e-08 2.29838065e-12)	3.99907903e+02
5700            	1.01325000e+05	(1.05721752e+00 -3.15914382e-09 2.27263024e-12)	3.99918898e+02
5800            	1.01325000e+05	(1.05722099e+00 2.93978975e-08 2.28241345e-12)	3.99928581e+02
5900            	1.01325000e+05	(1.05722444e+00 -6.35419636e-08 2.24347855e-12)	3.99937107e+02
6000            	1.01325000e+05	(1.05722692e+00 1.29543152e-08 2.26462833e-12)	3.99944616e+02
6100            	1.01325000e+05	(1.05722894e+00 -9.00436222e-08 2.26347489e-12)	3.99950598e+02
6200            	1.01325000e+05	(1.05723119e+00 -8.66169692e-08 2.24703432e-12)	3.99955564e+02
6300            	1.01325000e+05	(1.05723292e+00 4.15202282e-10 2.26468157e-12)	3.99960028e+02
6400            	1.01325000e+05	(1.05723387e+00 6.95699100e-08 2.27965823e-12)	3.99964043e+02
6500            	1.01325000e+05	(1.05723562e+00 -2.74147499e-08 2.24253508e-12)	3.99967655e+02
6600            	1.01325000e+05	(1.05723663e+00 6.92387077e-09 2.25685238e-12)	3.99970904e+02
6700            	1.01325000e+05	(1.05723789e+00 -2.53423449e-08 2.25597416e-12)	3.99973827e+02
6800            	1.01325000e+05	(1.05723897e+00 -1.99312772e-08 2.25134219e-12)	3.99976456e+02
6900            	1.01325000e+05	(1.05723978e+00 -2.82550830e-08 2.25974191e-12)	3.99978821e+02
7000            	1.01325000e+05	(1.05724054e+00 -9.41416752e-09 2.26962823e-12)	3.99980947e+02
7100            	1.01325000e+05	(1.05724126e+00 1.78031701e-09 2.26797369e-12)	3.99982858e+02
7200            	1.01325000e+05	(1.05724180e+00 -5.77108731e-09 2.24949301e-12)	3.99984324e+02
7300            	1.01325000e+05	(1.05724179e+00 -1.53363558e-09 2.26136977e-12)	3.99984324e+02
7400            	1.01325000e+05	(1.05724177e+00 3.41982397e-09 2.27107021e-12)	3.99984324e+02
7500            	1.01325000e+05	(1.05724178e+00 -1.89352946e-09 2.25252506e-12)	3.99984324e+02
7600            	1.01325000e+05	(1.05724180e+00 -5.76288322e-09 2.26864079e-12)	3.99984324e+02
7700            	1.01325000e+05	(1.05724182e+00 -1.81440208e-09 2.24324414e-12)	3.99984324e+02
7800            	1.01325000e+05	(1.05724180e+00 1.72873233e-10 2.25106726e-12)	3.99984324e+02
7900            	1.01325000e+05	(1.05724176e+00 1.11373212e-08 2.29301460e-12)	3.99984324e+02
8000            	1.01325000e+05	(1.05724179e+00 -3.34056875e-09 2.24850019e-12)	3.99984324e+02
8100            	1.01325000e+05	(1.05724176e+00 3.55035273e-09 2.25843272e-12)	3.99984324e+02
8200            	1.01325000e+05	(1.05724179e+00 -3.86978824e-09 2.29912655e-12)	3.99984324e+02
8300            	1.01325000e+05	(1.05724178e+00 3.09982901e-09 2.26574986e-12)	3.99984324e+02
8400            	1.01325000e+05	(1.05724176e+00 9.27169480e-09 2.30055593e-12)	3.99984324e+02
8500            	1.01325000e+05	(1.05724178e+00 5.18103220e-09 2.28245880e-12)	3.99984324e+02
8600            	1.01325000e+05	(1.05724178e+00 9.06609729e-09 2.27050056e-12)	3.99984324e+02
8700            	1.01325000e+05	(1.05724177e+00 6.62433817e-09 2.26519585e-12)	3.99984324e+02
8800            	1.01325000e+05	(1.05724177e+00 5.63875178e-09 2.29287434e-12)	3.99984324e+02
8900            	1.01325000e+05	(1.05724178e+00 3.22014249e-10 2.26084188e-12)	3.99984324e+02
9000            	1.01325000e+05	(1.05724176e+00 7.50141592e-09 2.26939954e-12)	3.99984324e+02
9100            	1.01325000e+05	(1.05724179e+00 1.00263808e-09 2.27746791e-12)	3.99984324e+02
9200            	1.01325000e+05	(1.05724179e+00 3.31245513e-10 2.24800909e-12)	3.99984324e+02
9300            	1.01325000e+05	(1.05724181e+00 -8.53732244e-09 2.29351389e-12)	3.99984324e+02
9400            	1.01325000e+05	(1.05724181e+00 -6.90552450e-09 2.24846389e-12)	3.99984324e+02
9500            	1.01325000e+05	(1.05724179e+00 -4.76962678e-09 2.28233005e-12)	3.99984324e+02
9600            	1.01325000e+05	(1.05724180e+00 -1.13621427e-09 2.26072394e-12)	3.99984324e+02
9700            	1.01325000e+05	(1.05724181e+00 -5.56251109e-09 2.24969837e-12)	3.99984324e+02
9800            	1.01325000e+05	(1.05724178e+00 5.58528785e-10 2.25621578e-12)	3.99984324e+02
9900            	1.01325000e+05	(1.05724175e+00 6.74989283e-09 2.27414141e-12)	3.99984324e+02
10000           	1.01325000e+05	(1.05724179e+00 -4.21785671e-10 2.26452777e-12)	3.99984324e+02
