/*--------------------------------*- C++ -*----------------------------------*\
| =========                 |                                                 |
| \\      /  F ield         | OpenFOAM: The Open Source CFD Toolbox           |
|  \\    /   O peration     | Version:  2212                                  |
|   \\  /    A nd           | Website:  www.openfoam.com                      |
|    \\/     M anipulation  |                                                 |
\*---------------------------------------------------------------------------*/
FoamFile
{
    version     2.0;
    format      ascii;
    arch        "LSB;label=32;scalar=64";
    class       volScalarField;
    location    "100000";
    object      alphat;
}
// * * * * * * * * * * * * * * * * * * * * * * * * * * * * * * * * * * * * * //

dimensions      [1 -1 -1 0 0 0 0];

internalField   nonuniform List<scalar> 
200000
(
0.167768
0.167763
0.167757
0.167745
0.167633
0.167307
0.166508
0.164692
0.160877
0.153462
0.140214
0.118795
0.0884517
0.0529095
0.0221445
0.0059426
0.00112469
0.000855254
0.00189443
0.167939
0.167943
0.167896
0.167659
0.166894
0.164919
0.160677
0.152742
0.139634
0.120491
0.0959071
0.0684166
0.0420535
0.0209698
0.00814485
0.00253499
0.000865383
0.00129119
0.00195743
0.16841
0.168335
0.167958
0.166797
0.164088
0.158726
0.149463
0.13538
0.116404
0.0936533
0.0692966
0.0461935
0.0269378
0.0131526
0.00522031
0.0016935
0.000895767
0.00144017
0.00183716
0.168875
0.168446
0.167221
0.164405
0.158964
0.149844
0.136364
0.118622
0.0976602
0.0752841
0.0536926
0.0348049
0.0199559
0.00970642
0.00384469
0.00130206
0.00104015
0.00153114
0.0016942
0.169063
0.167962
0.165429
0.160506
0.15223
0.139976
0.123783
0.104486
0.083559
0.0627809
0.043844
0.0280019
0.0159145
0.00765971
0.00302559
0.00120403
0.00127189
0.00164479
0.00158423
0.168746
0.166696
0.162576
0.155481
0.14475
0.130276
0.112643
0.093032
0.0729559
0.0539301
0.0371968
0.0235501
0.013277
0.00627665
0.00242991
0.00127159
0.00157926
0.00176258
0.00150863
0.167783
0.164614
0.158848
0.149792
0.137167
0.121295
0.103078
0.0837957
0.0648301
0.0474095
0.0324305
0.020377
0.0113321
0.00523964
0.00209759
0.00143359
0.00190091
0.00186412
0.00145606
0.166142
0.161814
0.154511
0.143836
0.129864
0.113215
0.0949393
0.0762827
0.0584496
0.0424146
0.0288184
0.0179411
0.00977041
0.00438358
0.00193732
0.00173215
0.00220857
0.00194784
0.00141916
0.163877
0.158452
0.149821
0.137892
0.123028
0.106035
0.0880032
0.0700871
0.0533118
0.0384438
0.0259353
0.015936
0.00843541
0.00373549
0.00192196
0.00210016
0.00248209
0.00201556
0.00139301
0.161094
0.154694
0.144975
0.132127
0.116724
0.099676
0.0820521
0.0648943
0.0490652
0.0351636
0.0235048
0.0141693
0.00726403
0.00325064
0.00204797
0.00249193
0.00271834
0.00207084
0.0013735
0.157892
0.150683
0.140119
0.126632
0.110953
0.0940341
0.0768957
0.0604639
0.0454612
0.0323563
0.0213756
0.0125956
0.00628784
0.00294617
0.00232111
0.00287117
0.00292242
0.00211644
0.00135853
0.154402
0.14654
0.135346
0.121448
0.10568
0.0890053
0.0723779
0.0566163
0.0423255
0.029876
0.0194395
0.0111347
0.00545094
0.00281842
0.00267617
0.00321949
0.00309936
0.00215346
0.00134671
0.150721
0.142357
0.130717
0.116584
0.100859
0.0844943
0.0683726
0.0532167
0.0395367
0.0276348
0.0176711
0.009865
0.00480055
0.00284808
0.00306681
0.00353198
0.00325194
0.00218486
0.00133713
0.146935
0.138202
0.126266
0.112032
0.0964413
0.0804182
0.0647796
0.0501644
0.0370089
0.0255724
0.0160301
0.0087181
0.00432784
0.00301863
0.00346039
0.00381065
0.00338282
0.00221121
0.00132925
0.143112
0.134121
0.122011
0.107776
0.0923769
0.0767072
0.0615197
0.0473833
0.0346777
0.0236382
0.0144821
0.00771843
0.00403423
0.003292
0.00383809
0.00405913
0.00349482
0.00223271
0.00132256
0.139303
0.130147
0.117957
0.103792
0.088622
0.0733027
0.058531
0.0448185
0.0325071
0.0218362
0.013096
0.00688598
0.00390451
0.00362368
0.00419101
0.0042812
0.00359193
0.00225053
0.0013167
0.135547
0.126299
0.114102
0.100059
0.0851372
0.0701572
0.0557665
0.0424325
0.0304765
0.0201585
0.0118344
0.00622296
0.00390949
0.00398237
0.0045167
0.0044795
0.0036762
0.00226548
0.00131148
0.131871
0.122589
0.110439
0.096553
0.0818882
0.0672317
0.0531887
0.0401933
0.0285547
0.0185618
0.0106861
0.00572603
0.00404214
0.00434889
0.00481628
0.00465648
0.00374943
0.00227796
0.00130681
0.128293
0.119022
0.106959
0.0932525
0.0788457
0.0644942
0.0507683
0.0380781
0.0267358
0.0170793
0.00967526
0.00538729
0.00425807
0.00470979
0.00509184
0.00481491
0.00381361
0.00228842
0.00130257
0.124826
0.1156
0.103652
0.0901378
0.0759848
0.0619196
0.0484846
0.0360768
0.0250248
0.0157205
0.00881762
0.00519236
0.00452927
0.00505721
0.00534538
0.00495752
0.00387043
0.00229736
0.00129869
0.121476
0.112319
0.100506
0.0871911
0.0732841
0.059486
0.046317
0.0341661
0.0233844
0.0144573
0.00810058
0.0051141
0.00483436
0.00538753
0.00557869
0.00508661
0.0039212
0.00230514
0.00129512
0.118245
0.109177
0.0975105
0.0843964
0.0707258
0.0571775
0.0442569
0.0323593
0.0218801
0.0133115
0.0075297
0.00515426
0.00515876
0.00569994
0.00579353
0.0052039
0.00396673
0.00231206
0.00129185
0.115135
0.106166
0.0946548
0.0817398
0.0682948
0.0549801
0.0422912
0.0306314
0.020423
0.0122702
0.0070952
0.00527666
0.00549069
0.00599482
0.00599169
0.00531073
0.00400776
0.00231812
0.00128883
0.112143
0.103283
0.091929
0.0792088
0.0659787
0.0528839
0.0404157
0.0289941
0.0190835
0.0113542
0.00678745
0.00546048
0.0058218
0.0062729
0.006175
0.00540859
0.00404526
0.00232352
0.00128603
0.109266
0.100519
0.0893236
0.0767926
0.0637662
0.0508766
0.0386121
0.0274092
0.0178224
0.0105499
0.00658078
0.00568862
0.00614671
0.00653494
0.00634512
0.00549865
0.00407957
0.00232841
0.00128344
0.106501
0.0978692
0.0868302
0.0744816
0.0616483
0.0489539
0.0368941
0.0259467
0.0166541
0.00987027
0.00649203
0.00594941
0.00646254
0.0067818
0.00650345
0.00558187
0.00411106
0.00233283
0.00128103
0.103843
0.0953265
0.084441
0.0722675
0.0596178
0.0471099
0.0352489
0.0245371
0.0155727
0.00931005
0.00648828
0.00623202
0.00676791
0.00701443
0.00665116
0.00565902
0.00414009
0.00233688
0.00127879
0.101287
0.092885
0.0821486
0.0701429
0.0576675
0.0453366
0.0336644
0.0231733
0.0145806
0.00885534
0.00655281
0.00652755
0.00706221
0.00723386
0.00678926
0.00573075
0.00416695
0.0023406
0.00127671
0.0988281
0.0905389
0.0799467
0.0681014
0.0557917
0.0436313
0.032151
0.0219175
0.0136869
0.00850241
0.00667305
0.00682921
0.00734518
0.0074411
0.00691869
0.00579765
0.00419188
0.00234404
0.00127477
0.0964623
0.0882825
0.0778293
0.0661369
0.0539851
0.0419886
0.0306973
0.020728
0.0128901
0.00824672
0.00683817
0.00713218
0.00761681
0.00763711
0.00704025
0.0058602
0.00421512
0.00234725
0.00127296
0.0941844
0.0861108
0.0757909
0.0642445
0.0522437
0.0404084
0.0293145
0.0196069
0.0121922
0.00808543
0.00703935
0.00743322
0.00787725
0.00782273
0.00715466
0.00591885
0.00423683
0.00235024
0.00127127
0.0919899
0.0840187
0.0738267
0.0624197
0.0505642
0.0388872
0.0279885
0.0185579
0.0115888
0.00799844
0.00726805
0.00773023
0.00812681
0.00799875
0.00726257
0.00597397
0.0042572
0.00235306
0.00126969
0.0898746
0.0820019
0.0719322
0.0606581
0.0489415
0.0374157
0.0266968
0.0175805
0.0110747
0.00797529
0.00751683
0.00802176
0.00836589
0.00816587
0.00736453
0.00602591
0.00427639
0.00235574
0.00126822
0.0878342
0.0800561
0.0701032
0.058956
0.0473734
0.036001
0.0254921
0.0166815
0.0106457
0.00800759
0.00777959
0.00830686
0.00859497
0.00832475
0.00746105
0.00607494
0.00429446
0.00235828
0.00126684
0.0858648
0.0781773
0.0683361
0.0573104
0.0458588
0.0346429
0.0243517
0.01586
0.0102968
0.00808738
0.00805146
0.0085849
0.00881457
0.00847598
0.00755258
0.00612133
0.00431155
0.00236071
0.00126555
0.0839628
0.076362
0.0666274
0.0557186
0.0443952
0.0333362
0.0232646
0.0151173
0.0100313
0.00820809
0.00832874
0.00885546
0.00902517
0.00862012
0.00763951
0.00616531
0.00432775
0.00236304
0.00126434
0.0821247
0.0746067
0.0649742
0.0541778
0.0429796
0.032077
0.0222323
0.0144503
0.00983428
0.00836294
0.00860862
0.00911834
0.00922725
0.00875766
0.0077222
0.00620708
0.00434314
0.00236529
0.00126322
0.0803473
0.0729085
0.0633737
0.0526859
0.0416118
0.0308701
0.0212592
0.0138564
0.00969854
0.0085456
0.00888896
0.00937349
0.0094213
0.00888909
0.00780106
0.00624697
0.00435785
0.00236747
0.00126217
0.0786275
0.0712645
0.061823
0.0512394
0.0402833
0.0296813
0.0203406
0.0133324
0.00961844
0.00875049
0.00916813
0.00962094
0.00960775
0.00901483
0.00787632
0.00628494
0.00437188
0.00236959
0.00126118
0.0769625
0.0696718
0.0603196
0.0498368
0.0390007
0.0285704
0.0194829
0.0128755
0.00958843
0.00897286
0.00944488
0.00986083
0.00978702
0.00913524
0.00794821
0.00632113
0.00438527
0.00237164
0.00126026
0.0753497
0.068128
0.0588616
0.0484774
0.0377643
0.0275126
0.0186869
0.0124864
0.00960333
0.00920867
0.00971826
0.0100933
0.0099595
0.00925066
0.00801696
0.0063557
0.00439809
0.00237365
0.0012594
0.0737865
0.0666309
0.0574471
0.0471597
0.0365703
0.026499
0.0179523
0.0121631
0.00965827
0.00945459
0.00998757
0.0103186
0.0101256
0.0093614
0.00808279
0.0063888
0.00441038
0.0023756
0.0012586
0.0722707
0.0651783
0.0560741
0.0458816
0.0354153
0.0255266
0.0172766
0.0118979
0.00974825
0.00970787
0.0102523
0.010537
0.0102855
0.00946777
0.00814592
0.00642052
0.00442218
0.00237751
0.00125785
0.0707996
0.0637683
0.0547413
0.0446429
0.0343025
0.0245992
0.0166584
0.0116866
0.00986845
0.00996625
0.0105121
0.0107486
0.0104398
0.00957002
0.00820652
0.00645098
0.00443355
0.00237939
0.00125715
0.0693717
0.0623989
0.0534462
0.0434368
0.0332033
0.0237138
0.0160959
0.0115257
0.0100145
0.0102278
0.0107667
0.0109537
0.0105886
0.00966842
0.00826475
0.00648025
0.0044445
0.00238123
0.0012565
0.0679851
0.0610683
0.0521869
0.0422656
0.0321551
0.0228735
0.0155874
0.0114117
0.0101825
0.0104911
0.011016
0.0111526
0.0107322
0.00976319
0.00832078
0.00650842
0.00445507
0.00238305
0.0012559
0.066638
0.0597748
0.0509628
0.0411316
0.0311577
0.0220806
0.0151332
0.011341
0.0103688
0.0107549
0.0112598
0.0113455
0.010871
0.00985454
0.00837473
0.00653556
0.00446528
0.00238484
0.00125533
0.0653288
0.0585171
0.0497732
0.0400341
0.0302043
0.0213365
0.0147343
0.0113103
0.0105704
0.0110181
0.0114982
0.0115327
0.0110051
0.00994268
0.00842673
0.00656174
0.00447517
0.00238661
0.00125481
0.0640559
0.0572939
0.0486171
0.0389703
0.0292813
0.0206392
0.0143853
0.011316
0.0107845
0.01128
0.0117312
0.0117143
0.0111349
0.0100278
0.0084769
0.00658701
0.00448475
0.00238837
0.00125432
0.0628179
0.0561039
0.0474927
0.0379373
0.0283901
0.0199871
0.0140837
0.0113546
0.0110088
0.0115399
0.0119587
0.0118907
0.0112605
0.01011
0.00852537
0.00661144
0.00449405
0.0023901
0.00125388
0.0616134
0.0549461
0.0464005
0.0369395
0.0275337
0.0193793
0.0138275
0.0114226
0.0112413
0.0117972
0.012181
0.0120619
0.0113821
0.0101895
0.00857214
0.0066349
0.00450302
0.0023918
0.00125346
0.0604411
0.0538186
0.0453333
0.0359412
0.0267086
0.018815
0.0136148
0.0115169
0.0114801
0.0120516
0.012398
0.0122283
0.0114999
0.0102664
0.0086173
0.00665753
0.00451169
0.00239348
0.00125308
0.0592997
0.0527199
0.0442937
0.0349901
0.0259178
0.018293
0.0134431
0.0116345
0.0117237
0.0123028
0.01261
0.01239
0.0116142
0.0103408
0.00866101
0.00667955
0.00452014
0.00239514
0.00125272
0.0581878
0.0516495
0.0432838
0.0340811
0.0251637
0.0178157
0.0133104
0.0117726
0.0119708
0.0125505
0.012817
0.0125473
0.011725
0.0104129
0.00870338
0.00670095
0.00452837
0.00239679
0.0012524
0.0571046
0.0506069
0.0423043
0.033213
0.024448
0.0173812
0.0132145
0.0119286
0.0122204
0.0127946
0.0130191
0.0127002
0.0118325
0.0104829
0.00874448
0.00672174
0.00453643
0.00239844
0.0012521
0.056049
0.0495917
0.0413527
0.0323657
0.0237687
0.0169875
0.0131528
0.0121003
0.0124714
0.0130348
0.0132165
0.012849
0.011937
0.0105507
0.00878436
0.00674196
0.0045443
0.00240009
0.00125184
0.0550203
0.0486025
0.0404261
0.0315417
0.0231243
0.0166333
0.0131231
0.0122854
0.0127231
0.0132711
0.0134093
0.0129939
0.0120385
0.0106166
0.00882309
0.00676161
0.00455199
0.00240174
0.00125159
0.0540177
0.0476396
0.0395281
0.0307439
0.0225144
0.0163177
0.0131229
0.0124821
0.0129748
0.0135035
0.0135976
0.0131349
0.0121372
0.0106806
0.00886072
0.00678073
0.00455951
0.00240337
0.00125138
0.05304
0.0466979
0.0386287
0.0299703
0.0219385
0.0160395
0.0131499
0.0126887
0.0132259
0.0137319
0.0137816
0.0132723
0.0122332
0.0107428
0.0088973
0.00679935
0.00456687
0.002405
0.00125118
0.0520855
0.0457773
0.0377591
0.0292219
0.0213957
0.0157975
0.0132019
0.0129036
0.0134759
0.0139563
0.0139614
0.0134063
0.0123266
0.0108033
0.00893289
0.00681749
0.00457406
0.00240663
0.00125101
0.0511536
0.0448801
0.0369285
0.0285011
0.020888
0.0155905
0.0132767
0.0131254
0.0137246
0.0141767
0.0141371
0.0135368
0.0124175
0.0108622
0.00896752
0.00683516
0.00458111
0.00240824
0.00125086
0.0502443
0.0440085
0.0361381
0.0278102
0.0204143
0.015417
0.0133722
0.013353
0.0139714
0.0143931
0.0143089
0.0136641
0.0125061
0.0109195
0.00900125
0.0068524
0.00458802
0.00240986
0.00125074
0.0493575
0.0431605
0.035363
0.027148
0.0199735
0.0152757
0.0134866
0.0135851
0.0142162
0.0146057
0.0144768
0.0137884
0.0125924
0.0109754
0.00903411
0.00686921
0.00459478
0.00241146
0.00125063
0.0484923
0.0423336
0.0346049
0.026513
0.0195653
0.015165
0.0136178
0.013821
0.0144587
0.0148144
0.0146411
0.0139096
0.0126766
0.0110298
0.00906614
0.00688563
0.00460142
0.00241306
0.00125054
0.0476489
0.0415295
0.033866
0.0259048
0.0191892
0.0150835
0.0137643
0.0140598
0.0146988
0.0150193
0.0148018
0.0140279
0.0127586
0.0110828
0.00909737
0.00690166
0.00460793
0.00241465
0.00125046
0.0468244
0.0407299
0.0331465
0.025323
0.0188446
0.0150294
0.0139244
0.0143006
0.0149362
0.0152204
0.0149589
0.0141435
0.0128387
0.0111345
0.00912785
0.00691731
0.00461432
0.00241624
0.00125041
0.0460162
0.0399404
0.0324456
0.024767
0.0185311
0.0150014
0.0140965
0.014543
0.0151709
0.0154179
0.0151128
0.0142564
0.0129168
0.011185
0.00915759
0.00693261
0.00462059
0.00241783
0.00125037
0.0452269
0.0391899
0.0317652
0.0242377
0.018248
0.0149977
0.0142793
0.0147863
0.0154027
0.0156118
0.0152633
0.0143668
0.0129931
0.0112343
0.00918663
0.00694757
0.00462675
0.0024194
0.00125034
0.0444591
0.0384756
0.0311078
0.0237351
0.0179946
0.015017
0.0144716
0.0150301
0.0156317
0.0158021
0.0154107
0.0144746
0.0130676
0.0112824
0.00921499
0.00696217
0.00463279
0.00242097
0.00125033
0.0437115
0.0377741
0.0304729
0.0232586
0.0177702
0.0150576
0.014672
0.0152738
0.0158576
0.015989
0.015555
0.0145801
0.0131404
0.0113293
0.00924271
0.00697649
0.00463873
0.00242254
0.00125034
0.042982
0.0370856
0.0298594
0.022808
0.017574
0.015118
0.0148797
0.0155172
0.0160806
0.0161724
0.0156964
0.0146832
0.0132116
0.0113752
0.00926972
0.00699031
0.00464451
0.00242408
0.00125035
0.0422722
0.0364119
0.0292668
0.0223834
0.0174051
0.015197
0.0150936
0.01576
0.0163006
0.0163526
0.0158349
0.0147841
0.0132812
0.0114201
0.00929633
0.00700443
0.00465037
0.00242567
0.00125038
0.0415648
0.0357539
0.0286946
0.0219844
0.0172627
0.015293
0.0153128
0.0160018
0.0165175
0.0165295
0.0159706
0.0148829
0.0133492
0.0114641
0.00932246
0.0070182
0.00465618
0.00242726
0.00125043
0.0408668
0.0351109
0.0281426
0.0216109
0.0171459
0.0154046
0.0155365
0.0162424
0.0167314
0.0167032
0.0161035
0.0149796
0.0134159
0.0115072
0.00934804
0.00703162
0.00466188
0.00242884
0.00125049
0.0401964
0.0344833
0.0276107
0.0212627
0.0170536
0.0155308
0.015764
0.0164816
0.0169423
0.0168739
0.0162339
0.0150743
0.0134811
0.0115493
0.00937306
0.00704473
0.00466747
0.00243041
0.00125056
0.0395599
0.033873
0.0270995
0.0209395
0.0169849
0.0156701
0.0159948
0.0167192
0.0171502
0.0170415
0.0163617
0.0151671
0.0135449
0.0115906
0.00939755
0.00705757
0.00467295
0.00243197
0.00125064
0.0389359
0.0332806
0.0266085
0.0206411
0.0169388
0.0158215
0.0162281
0.016955
0.0173551
0.0172062
0.0164871
0.0152579
0.0136075
0.0116309
0.00942153
0.00707017
0.00467836
0.00243352
0.00125074
0.0383233
0.0327054
0.0261378
0.0203672
0.0169142
0.0159838
0.0164635
0.017189
0.0175571
0.017368
0.0166101
0.015347
0.0136687
0.0116705
0.00944504
0.00708253
0.00468368
0.00243507
0.00125084
0.0377232
0.0321469
0.0256873
0.0201173
0.0169101
0.0161561
0.0167005
0.017421
0.0177561
0.017527
0.0167307
0.0154343
0.0137287
0.0117093
0.0094681
0.00709468
0.00468893
0.00243661
0.00125095
0.0371365
0.0316047
0.0252571
0.0198913
0.0169255
0.0163373
0.0169386
0.017651
0.0179523
0.0176833
0.0168491
0.0155199
0.0137876
0.0117473
0.00949071
0.00710663
0.00469411
0.00243815
0.00125107
0.0365633
0.0310785
0.024847
0.0196885
0.0169593
0.0165266
0.0171776
0.0178787
0.0181455
0.0178369
0.0169653
0.0156039
0.0138452
0.0117845
0.0095129
0.00711837
0.00469923
0.00243968
0.0012512
0.0360039
0.0305683
0.0244572
0.0195086
0.0170106
0.0167232
0.017417
0.0181043
0.018336
0.0179878
0.0170794
0.0156862
0.0139018
0.0118211
0.00953467
0.0071299
0.00470427
0.00244122
0.00125134
0.0354581
0.0300739
0.0240874
0.019351
0.0170783
0.0169262
0.0176566
0.0183276
0.0185237
0.0181362
0.0171913
0.015767
0.0139573
0.011857
0.00955614
0.00714148
0.00470933
0.00244277
0.00125149
0.0349259
0.0295953
0.0237377
0.0192153
0.0171613
0.0171349
0.0178961
0.0185486
0.0187086
0.0182822
0.0173013
0.0158463
0.0140117
0.0118922
0.00957729
0.00715289
0.00471437
0.00244433
0.00125165
0.0344071
0.0291324
0.0234079
0.0191009
0.0172589
0.0173487
0.0181353
0.0187673
0.0188908
0.0184257
0.0174093
0.0159241
0.0140651
0.0119268
0.00959803
0.00716394
0.0047193
0.00244587
0.00125182
0.0339016
0.0286855
0.0230981
0.0190072
0.0173699
0.017567
0.0183738
0.0189836
0.0190704
0.0185668
0.0175154
0.0160005
0.0141176
0.0119608
0.00961834
0.00717474
0.00472412
0.0024474
0.001252
0.0334095
0.0282544
0.0228081
0.0189336
0.0174935
0.0177891
0.0186116
0.0191975
0.0192474
0.0187056
0.0176197
0.0160756
0.0141691
0.0119941
0.00963827
0.00718536
0.00472886
0.00244891
0.00125218
0.0329304
0.0278391
0.0225379
0.0188795
0.0176289
0.0180147
0.0188485
0.019409
0.0194218
0.0188422
0.0177222
0.0161493
0.0142196
0.0120268
0.00965784
0.00719581
0.00473355
0.00245041
0.00125236
0.032464
0.0274394
0.0222873
0.0188441
0.0177751
0.0182432
0.0190844
0.0196182
0.0195937
0.0189765
0.0178228
0.0162216
0.0142693
0.0120589
0.00967709
0.00720611
0.00473818
0.00245192
0.00125256
0.0320102
0.0270554
0.0220561
0.0188269
0.0179313
0.0184741
0.019319
0.0198249
0.019763
0.0191087
0.0179218
0.0162927
0.014318
0.0120905
0.00969601
0.00721627
0.00474277
0.00245342
0.00125276
0.0315692
0.0266871
0.0218442
0.0188271
0.0180968
0.0187072
0.0195523
0.0200293
0.01993
0.0192387
0.0180191
0.0163626
0.0143659
0.0121215
0.00971463
0.00722629
0.00474732
0.00245493
0.00125296
0.0311414
0.0263347
0.0216515
0.018844
0.0182709
0.0189419
0.0197841
0.0202312
0.0200945
0.0193667
0.0181148
0.0164313
0.014413
0.012152
0.00973296
0.00723617
0.00475182
0.00245643
0.00125317
0.0307265
0.025998
0.0214776
0.018877
0.0184527
0.0191781
0.0200144
0.0204308
0.0202567
0.0194927
0.0182088
0.0164988
0.0144593
0.012182
0.009751
0.00724592
0.00475628
0.00245793
0.00125339
0.0303247
0.0256771
0.0213224
0.0189252
0.0186417
0.0194152
0.0202432
0.020628
0.0204166
0.0196167
0.0183014
0.0165651
0.0145048
0.0122115
0.00976876
0.00725555
0.0047607
0.00245942
0.00125361
0.029936
0.0253721
0.0211856
0.0189882
0.0188373
0.0196532
0.0204702
0.0208229
0.0205741
0.0197388
0.0183924
0.0166304
0.0145495
0.0122405
0.00978626
0.00726504
0.00476507
0.00246091
0.00125384
0.0295601
0.0250829
0.0210669
0.019065
0.0190388
0.0198917
0.0206955
0.0210155
0.0207295
0.0198589
0.018482
0.0166946
0.0145935
0.0122691
0.00980348
0.0072744
0.0047694
0.0024624
0.00125408
0.0291972
0.0248096
0.020966
0.0191551
0.0192458
0.0201306
0.0209191
0.0212057
0.0208827
0.0199773
0.0185701
0.0167577
0.0146368
0.0122972
0.00982049
0.00728366
0.00477369
0.00246388
0.00125432
0.0288472
0.0245521
0.0208824
0.0192577
0.0194576
0.0203695
0.0211408
0.0213936
0.0210337
0.0200938
0.0186568
0.0168198
0.0146794
0.0123248
0.00983725
0.0072928
0.00477794
0.00246536
0.00125457
0.0285099
0.0243105
0.020816
0.0193721
0.0196738
0.0206083
0.0213606
0.0215793
0.0211826
0.0202086
0.0187421
0.0168809
0.0147213
0.0123521
0.00985374
0.00730182
0.00478216
0.00246684
0.00125482
0.0281853
0.0240848
0.0207662
0.0194976
0.019894
0.0208469
0.0215786
0.0217627
0.0213294
0.0203217
0.0188262
0.0169411
0.0147625
0.0123789
0.00986998
0.00731072
0.00478633
0.00246832
0.00125507
0.0278734
0.0238749
0.0207327
0.0196337
0.0201177
0.021085
0.0217946
0.0219439
0.0214741
0.0204331
0.0189089
0.0170002
0.0148031
0.0124052
0.00988597
0.0073195
0.00479046
0.00246979
0.00125533
0.0275742
0.0236809
0.020715
0.0197796
0.0203445
0.0213225
0.0220087
0.0221229
0.0216169
0.0205428
0.0189903
0.0170585
0.014843
0.0124312
0.00990173
0.00732816
0.00479455
0.00247126
0.0012556
0.0272877
0.0235025
0.0207127
0.0199348
0.020574
0.0215594
0.0222208
0.0222998
0.0217577
0.0206508
0.0190705
0.0171158
0.0148823
0.0124568
0.00991726
0.00733671
0.00479861
0.00247272
0.00125586
0.0270139
0.0233398
0.0207254
0.0200987
0.020806
0.0217953
0.0224309
0.0224744
0.0218966
0.0207573
0.0191494
0.0171722
0.0149209
0.0124819
0.00993256
0.00734516
0.00480262
0.00247418
0.00125614
0.026753
0.0231927
0.0207525
0.0202706
0.02104
0.0220304
0.022639
0.022647
0.0220335
0.0208623
0.0192271
0.0172278
0.014959
0.0125067
0.00994765
0.0073535
0.0048066
0.00247564
0.00125641
0.026505
0.0230611
0.0207937
0.0204501
0.0212758
0.0222644
0.0228451
0.0228174
0.0221686
0.0209657
0.0193037
0.0172825
0.0149965
0.0125312
0.00996253
0.00736174
0.00481054
0.00247708
0.00125669
0.0262699
0.0229449
0.0208483
0.0206366
0.0215132
0.0224972
0.0230493
0.0229857
0.0223018
0.0210676
0.0193791
0.0173363
0.0150335
0.0125552
0.0099772
0.00736988
0.00481445
0.00247853
0.00125697
0.0260477
0.0228439
0.0209159
0.0208295
0.0217517
0.0227289
0.0232514
0.023152
0.0224332
0.021168
0.0194534
0.0173894
0.0150698
0.0125789
0.00999167
0.00737792
0.00481832
0.00247997
0.00125726
0.0258386
0.022758
0.0209961
0.0210285
0.0219913
0.0229593
0.0234515
0.0233163
0.0225629
0.021267
0.0195266
0.0174416
0.0151056
0.0126023
0.0100059
0.00738586
0.00482215
0.00248141
0.00125755
0.0256426
0.022687
0.0210882
0.021233
0.0222317
0.0231883
0.0236496
0.0234785
0.0226908
0.0213646
0.0195987
0.0174931
0.0151409
0.0126253
0.01002
0.00739371
0.00482595
0.00248284
0.00125784
0.0254597
0.0226308
0.0211918
0.0214425
0.0224727
0.0234159
0.0238457
0.0236388
0.0228169
0.0214607
0.0196697
0.0175438
0.0151757
0.012648
0.0100339
0.00740146
0.00482972
0.00248426
0.00125813
0.0252899
0.022589
0.0213064
0.0216568
0.0227141
0.023642
0.0240398
0.0237971
0.0229414
0.0215556
0.0197397
0.0175937
0.0152099
0.0126704
0.0100476
0.00740912
0.00483346
0.00248569
0.00125843
0.0251334
0.0225616
0.0214314
0.0218753
0.0229556
0.0238666
0.0242318
0.0239535
0.0230642
0.021649
0.0198086
0.0176429
0.0152437
0.0126924
0.0100611
0.00741669
0.00483716
0.0024871
0.00125873
0.0249902
0.0225482
0.0215664
0.0220977
0.0231972
0.0240896
0.0244219
0.0241079
0.0231854
0.0217412
0.0198766
0.0176914
0.0152769
0.0127142
0.0100744
0.00742418
0.00484083
0.00248852
0.00125903
0.0248601
0.0225486
0.0217109
0.0223237
0.0234388
0.024311
0.02461
0.0242605
0.0233049
0.021832
0.0199436
0.0177391
0.0153097
0.0127356
0.0100876
0.00743157
0.00484446
0.00248992
0.00125934
0.0247434
0.0225625
0.0218643
0.0225529
0.02368
0.0245308
0.0247962
0.0244112
0.0234229
0.0219216
0.0200096
0.0177862
0.015342
0.0127567
0.0101006
0.00743888
0.00484807
0.00249132
0.00125964
0.02464
0.0225897
0.0220263
0.0227849
0.0239209
0.024749
0.0249803
0.02456
0.0235392
0.0220099
0.0200746
0.0178326
0.0153738
0.0127775
0.0101134
0.0074461
0.00485164
0.00249272
0.00125995
0.0245498
0.0226297
0.0221962
0.0230195
0.0241613
0.0249654
0.0251625
0.024707
0.023654
0.022097
0.0201388
0.0178783
0.0154051
0.012798
0.010126
0.00745324
0.00485518
0.00249411
0.00126026
0.0244729
0.0226823
0.0223738
0.0232564
0.024401
0.0251801
0.0253428
0.0248522
0.0237673
0.0221829
0.020202
0.0179233
0.0154361
0.0128183
0.0101385
0.00746029
0.00485869
0.00249549
0.00126058
0.0244092
0.0227472
0.0225585
0.0234953
0.0246401
0.025393
0.0255211
0.0249957
0.0238791
0.0222676
0.0202643
0.0179677
0.0154665
0.0128382
0.0101508
0.00746727
0.00486217
0.00249687
0.00126089
0.0243586
0.022824
0.0227498
0.023736
0.0248783
0.0256042
0.0256974
0.0251373
0.0239894
0.0223511
0.0203257
0.0180114
0.0154965
0.0128579
0.0101629
0.00747416
0.00486561
0.00249825
0.00126121
0.0243212
0.0229123
0.0229475
0.0239782
0.0251156
0.0258136
0.0258719
0.0252772
0.0240983
0.0224334
0.0203862
0.0180545
0.0155261
0.0128773
0.0101749
0.00748097
0.00486903
0.00249961
0.00126153
0.0242967
0.0230118
0.023151
0.0242217
0.0253519
0.0260212
0.0260444
0.0254154
0.0242057
0.0225146
0.0204459
0.018097
0.0155553
0.0128965
0.0101867
0.0074877
0.00487241
0.00250097
0.00126185
0.0242852
0.023122
0.02336
0.0244663
0.0255871
0.0262269
0.026215
0.0255519
0.0243117
0.0225947
0.0205047
0.0181389
0.015584
0.0129153
0.0101984
0.00749436
0.00487577
0.00250233
0.00126217
0.0242865
0.0232427
0.023574
0.0247118
0.0258212
0.0264309
0.0263838
0.0256866
0.0244162
0.0226736
0.0205626
0.0181802
0.0156124
0.0129339
0.0102099
0.00750093
0.00487909
0.00250368
0.00126249
0.0243004
0.0233735
0.0237928
0.0249579
0.026054
0.0266329
0.0265507
0.0258197
0.0245194
0.0227515
0.0206198
0.0182209
0.0156403
0.0129522
0.0102213
0.00750743
0.00488238
0.00250502
0.00126282
0.0243269
0.0235138
0.024016
0.0252046
0.0262856
0.0268332
0.0267156
0.0259511
0.0246212
0.0228283
0.0206761
0.0182609
0.0156678
0.0129703
0.0102325
0.00751385
0.00488565
0.00250636
0.00126315
0.0243658
0.0236635
0.0242431
0.0254516
0.0265159
0.0270316
0.0268788
0.0260809
0.0247216
0.022904
0.0207317
0.0183005
0.0156949
0.0129882
0.0102436
0.0075202
0.00488888
0.00250769
0.00126347
0.0244169
0.023822
0.024474
0.0256988
0.0267447
0.0272281
0.0270401
0.0262091
0.0248207
0.0229786
0.0207864
0.0183394
0.0157217
0.0130057
0.0102545
0.00752647
0.00489209
0.00250901
0.0012638
0.02448
0.0239889
0.0247083
0.0259461
0.0269721
0.0274227
0.0271995
0.0263356
0.0249185
0.0230522
0.0208403
0.0183778
0.015748
0.0130231
0.0102653
0.00753267
0.00489526
0.00251033
0.00126413
0.024555
0.024164
0.0249457
0.0261932
0.027198
0.0276154
0.0273571
0.0264606
0.0250149
0.0231248
0.0208935
0.0184156
0.015774
0.0130401
0.0102759
0.00753879
0.0048984
0.00251164
0.00126446
0.0246412
0.0243467
0.0251859
0.0264401
0.0274224
0.0278063
0.0275129
0.0265839
0.0251101
0.0231964
0.0209459
0.0184528
0.0157996
0.013057
0.0102864
0.00754484
0.00490152
0.00251294
0.00126479
0.0247405
0.0245368
0.0254286
0.0266866
0.0276452
0.0279952
0.0276668
0.0267057
0.0252039
0.0232669
0.0209976
0.0184896
0.0158248
0.0130736
0.0102967
0.00755081
0.0049046
0.00251423
0.00126512
0.0248516
0.024734
0.0256737
0.0269326
0.0278663
0.0281823
0.027819
0.0268259
0.0252965
0.0233365
0.0210485
0.0185257
0.0158496
0.0130899
0.0103068
0.00755668
0.00490764
0.00251551
0.00126545
0.0249735
0.0249378
0.0259207
0.027178
0.0280859
0.0283674
0.0279693
0.0269446
0.0253878
0.023405
0.0210986
0.0185614
0.0158741
0.013106
0.0103168
0.00756247
0.00491064
0.00251679
0.00126578
0.0251057
0.0251478
0.0261696
0.0274228
0.0283037
0.0285506
0.0281179
0.0270617
0.0254779
0.0234726
0.021148
0.0185965
0.0158982
0.0131218
0.0103267
0.0075682
0.00491362
0.00251805
0.00126612
0.0252479
0.0253638
0.02642
0.0276667
0.0285198
0.0287319
0.0282647
0.0271773
0.0255667
0.0235392
0.0211967
0.018631
0.0159219
0.0131375
0.0103365
0.00757387
0.00491657
0.00251931
0.00126645
0.0253997
0.0255852
0.0266718
0.0279097
0.0287341
0.0289113
0.0284097
0.0272914
0.0256543
0.0236049
0.0212447
0.0186651
0.0159453
0.0131529
0.0103461
0.00757947
0.00491949
0.00252056
0.00126678
0.025561
0.0258118
0.0269248
0.0281518
0.0289466
0.0290888
0.028553
0.027404
0.0257407
0.0236696
0.0212919
0.0186986
0.0159683
0.0131681
0.0103556
0.007585
0.00492239
0.00252181
0.00126712
0.0257312
0.0260432
0.0271786
0.0283927
0.0291573
0.0292643
0.0286945
0.0275151
0.0258259
0.0237334
0.0213385
0.0187317
0.015991
0.013183
0.010365
0.00759046
0.00492525
0.00252305
0.00126745
0.0259102
0.026279
0.0274333
0.0286326
0.0293662
0.029438
0.0288342
0.0276247
0.0259098
0.0237962
0.0213843
0.0187642
0.0160134
0.0131978
0.0103742
0.00759585
0.00492809
0.00252428
0.00126779
0.0260976
0.026519
0.0276885
0.0288711
0.0295732
0.0296097
0.0289722
0.0277328
0.0259926
0.0238581
0.0214295
0.0187962
0.0160353
0.0132123
0.0103833
0.00760117
0.00493089
0.0025255
0.00126812
0.026293
0.0267627
0.0279441
0.0291084
0.0297783
0.0297794
0.0291085
0.0278395
0.0260742
0.0239191
0.021474
0.0188278
0.016057
0.0132266
0.0103923
0.00760642
0.00493367
0.00252671
0.00126846
0.026496
0.0270099
0.0281999
0.0293442
0.0299815
0.0299472
0.029243
0.0279447
0.0261546
0.0239791
0.0215177
0.0188588
0.0160783
0.0132406
0.0104011
0.00761159
0.00493641
0.00252791
0.00126879
0.0267065
0.0272603
0.0284557
0.0295786
0.0301828
0.0301131
0.0293758
0.0280484
0.0262338
0.0240383
0.0215608
0.0188893
0.0160993
0.0132545
0.0104098
0.0076167
0.00493912
0.00252911
0.00126913
0.0269229
0.0275136
0.0287114
0.0298115
0.0303821
0.0302771
0.0295069
0.0281507
0.0263119
0.0240965
0.0216032
0.0189194
0.0161199
0.0132681
0.0104184
0.00762173
0.0049418
0.00253029
0.00126946
0.0271452
0.0277694
0.0289669
0.0300428
0.0305793
0.0304391
0.0296362
0.0282516
0.0263888
0.0241538
0.0216449
0.0189489
0.0161402
0.0132815
0.0104268
0.00762669
0.00494444
0.00253147
0.00126979
0.0273737
0.0280275
0.029222
0.0302724
0.0307746
0.0305992
0.0297639
0.028351
0.0264646
0.0242103
0.021686
0.018978
0.0161601
0.0132947
0.0104351
0.00763158
0.00494706
0.00253264
0.00127013
0.0276083
0.0282877
0.0294765
0.0305003
0.0309679
0.0307573
0.0298898
0.028449
0.0265392
0.0242658
0.0217264
0.0190066
0.0161798
0.0133076
0.0104432
0.0076364
0.00494964
0.00253379
0.00127046
0.0278484
0.0285496
0.0297302
0.0307264
0.0311591
0.0309134
0.030014
0.0285455
0.0266126
0.0243205
0.0217661
0.0190347
0.016199
0.0133204
0.0104513
0.00764114
0.00495219
0.00253494
0.00127079
0.0280938
0.028813
0.0299832
0.0309507
0.0313482
0.0310676
0.0301364
0.0286406
0.0266849
0.0243743
0.0218052
0.0190624
0.016218
0.0133329
0.0104592
0.00764581