/*--------------------------------*- C++ -*----------------------------------*\
| =========                 |                                                 |
| \\      /  F ield         | OpenFOAM: The Open Source CFD Toolbox           |
|  \\    /   O peration     | Version:  2212                                  |
|   \\  /    A nd           | Website:  www.openfoam.com                      |
|    \\/     M anipulation  |                                                 |
\*---------------------------------------------------------------------------*/
FoamFile
{
    version     2.0;
    format      ascii;
    arch        "LSB;label=32;scalar=64";
    class       volScalarField;
    location    "10000";
    object      alphat;
}
// * * * * * * * * * * * * * * * * * * * * * * * * * * * * * * * * * * * * * //

dimensions      [1 -1 -1 0 0 0 0];

internalField   nonuniform List<scalar> 
200000
(
0.166773
0.166776
0.166779
0.166776
0.166657
0.166292
0.16543
0.163585
0.159743
0.152261
0.138843
0.11713
0.0865186
0.0512722
0.0218073
0.00619706
0.00161869
0.000748226
0.000840814
0.166752
0.16673
0.166637
0.166299
0.165444
0.163444
0.159246
0.151365
0.138297
0.119137
0.0944833
0.066971
0.0408412
0.0204287
0.00823861
0.00301275
0.00176834
0.00168447
0.00109383
0.166691
0.166536
0.166051
0.164836
0.16215
0.156904
0.147839
0.133968
0.115161
0.0925163
0.0682996
0.045386
0.0264359
0.013129
0.00565859
0.00241542
0.00171943
0.00161045
0.00108974
0.166497
0.165982
0.164715
0.161959
0.156705
0.147878
0.134747
0.117347
0.0966781
0.0745486
0.0531368
0.0344595
0.0199326
0.0101071
0.00457065
0.00215275
0.00155972
0.00139232
0.00106686
0.165991
0.16489
0.162436
0.157729
0.149801
0.137982
0.122249
0.103379
0.0828187
0.0623446
0.0436603
0.0280739
0.0163077
0.00844498
0.00398974
0.00202064
0.00139736
0.00112775
0.00103807
0.165076
0.163139
0.159241
0.152509
0.142254
0.128312
0.111207
0.0920797
0.0724224
0.0537517
0.0373291
0.0239876
0.0140702
0.00746039
0.0036672
0.00190514
0.00121269
0.00093693
0.00101413
0.163676
0.160726
0.155308
0.146729
0.134667
0.119387
0.101744
0.0829874
0.0644881
0.04748
0.0328815
0.0212149
0.0126078
0.00685083
0.0034746
0.00179722
0.00105288
0.000840997
0.000994305
0.161748
0.157725
0.150868
0.140748
0.127394
0.111377
0.0937113
0.075623
0.0583118
0.0427623
0.0296384
0.0192559
0.0116137
0.00645762
0.00334579
0.00170172
0.000966221
0.000798798
0.00097682
0.159318
0.15426
0.146138
0.134816
0.120607
0.104278
0.0868944
0.0695978
0.0534147
0.0391249
0.0272039
0.0178271
0.0109135
0.00618831
0.00324242
0.00161884
0.000913474
0.000787635
0.000960981
0.156451
0.150462
0.141295
0.129086
0.114368
0.0980172
0.0810874
0.0646145
0.0494677
0.0362614
0.0253311
0.0167547
0.0104007
0.00598813
0.00314805
0.00154776
0.000885349
0.000795485
0.000946618
0.153235
0.146455
0.136467
0.123645
0.108679
0.0924988
0.0761137
0.0604503
0.0462405
0.033967
0.0238599
0.0159279
0.0100083
0.00582307
0.0030486
0.00145304
0.000876792
0.000815624
0.00093365
0.149761
0.142344
0.131743
0.118532
0.103512
0.0876275
0.0718281
0.0569364
0.0435676
0.032099
0.0226806
0.0152723
0.0096929
0.00567668
0.0029589
0.00142067
0.000889841
0.000844801
0.000922004
0.146115
0.138209
0.127178
0.11376
0.0988258
0.0833154
0.0681118
0.0539433
0.0413266
0.0305544
0.0217155
0.0147349
0.00942159
0.00552461
0.00284531
0.00139738
0.000921241
0.000880809
0.000911643
0.142375
0.134114
0.122808
0.109322
0.0945753
0.0794846
0.0648686
0.051371
0.0394257
0.0292574
0.0209081
0.014278
0.00917336
0.00536983
0.00276331
0.00138505
0.000970606
0.000922193
0.000902539
0.138608
0.130105
0.118651
0.105206
0.0907153
0.0760682
0.0620201
0.0491409
0.0377947
0.0281513
0.0202166
0.0138743
0.00893492
0.00521186
0.0026862
0.00138635
0.00103461
0.000967718
0.00089464
0.134866
0.126215
0.114713
0.10139
0.0872034
0.0730083
0.0595025
0.0471906
0.0363788
0.0271922
0.0196091
0.0135031
0.00869519
0.00504322
0.00259986
0.0014035
0.00110942
0.0010161
0.00088788
0.131185
0.122465
0.110995
0.0978538
0.0840008
0.0702558
0.0572628
0.0454702
0.0351349
0.026346
0.0190611
0.0131492
0.00844765
0.00486441
0.00251713
0.00143495
0.00119145
0.00106598
0.000882173
0.127594
0.118867
0.10749
0.0945746
0.0810725
0.0677683
0.0552574
0.0439389
0.0340283
0.0255855
0.0185528
0.0127988
0.00818064
0.00466963
0.00244218
0.00147846
0.00127908
0.00111596
0.000877406
0.124112
0.115428
0.10419
0.0915305
0.0783872
0.06551
0.05345
0.0425635
0.0330311
0.0248892
0.0180696
0.0124458
0.00790621
0.00449257
0.00238501
0.00154399
0.00137076
0.001165
0.000873454
0.12075
0.112148
0.101085
0.0887006
0.0759171
0.0634498
0.05181
0.0413166
0.0321205
0.02424
0.0176001
0.0120846
0.00761739
0.00429546
0.00233577
0.00162177
0.0014642
0.00121224
0.000870192
0.117517
0.109026
0.0981621
0.0860655
0.0736376
0.0615613
0.0503118
0.0401753
0.0312783
0.0236242
0.0171363
0.011713
0.00732001
0.00411546
0.00230549
0.00170807
0.001557
0.00125696
0.000867498
0.114415
0.106058
0.0954107
0.0836072
0.0715269
0.0598216
0.0489337
0.039121
0.0304891
0.023031
0.0166713
0.0113272
0.00701303
0.0039439
0.00229746
0.00180085
0.00164722
0.00129856
0.000865258
0.111446
0.103238
0.0928183
0.081309
0.0695658
0.058211
0.0476574
0.0381377
0.0297408
0.0224521
0.0162017
0.010932
0.00671536
0.00378847
0.00231
0.00189796
0.0017334
0.0013366
0.000863364
0.108606
0.100559
0.0903737
0.0791559
0.0677374
0.0567126
0.0464672
0.0372126
0.0290235
0.0218816
0.0157263
0.0105307
0.00641499
0.00365243
0.00234855
0.00199822
0.00181477
0.00137092
0.000861727
0.105894
0.0980148
0.0880657
0.0771341
0.0660268
0.0553117
0.0453501
0.0363347
0.0283295
0.0213151
0.0152448
0.0101261
0.00613012
0.00353638
0.00240116
0.00209966
0.00189101
0.0014016
0.000860276
0.103304
0.0955969
0.085884
0.0752312
0.0644208
0.0539955
0.0442949
0.0354953
0.0276528
0.0207507
0.0147596
0.00972495
0.00586189
0.00344928
0.00246463
0.0022003
0.00196203
0.00142889
0.000858957
0.100831
0.0932983
0.0838187
0.073436
0.0629079
0.0527533
0.0432922
0.0346872
0.0269889
0.0201858
0.0142676
0.0093205
0.00561025
0.00338848
0.0025371
0.00229868
0.00202787
0.00145313
0.000857735
0.0984714
0.0911115
0.0818608
0.0717383
0.0614777
0.0515756
0.042334
0.0339045
0.0263346
0.0196211
0.0137788
0.00894156
0.00538306
0.00335197
0.00261662
0.00239375
0.00208873
0.00147468
0.000856585
0.096218
0.0890294
0.0800018
0.0701292
0.0601214
0.0504542
0.0414139
0.0331428
0.0256881
0.019058
0.0132951
0.00857078
0.00517688
0.00334268
0.00270198
0.00248503
0.00214487
0.00149386
0.00085549
0.0940656
0.0870453
0.078234
0.0686003
0.058831
0.0493823
0.0405264
0.0323986
0.0250483
0.0184975
0.0128181
0.00821745
0.00499936
0.00335068
0.00279127
0.00257228
0.00219666
0.00151099
0.000854439
0.0920086
0.0851526
0.0765502
0.0671445
0.0575996
0.0483538
0.0396671
0.0316696
0.0244152
0.0179423
0.0123527
0.00788345
0.00485154
0.00337315
0.00288265
0.00265543
0.00224448
0.00152638
0.000853425
0.0900416
0.0833452
0.0749439
0.065755
0.0564211
0.0473639
0.0388323
0.0309537
0.0237874
0.0173881
0.011886
0.00756994
0.00473099
0.00340832
0.00297467
0.0027345
0.00228872
0.00154027
0.000852445
0.0881593
0.0816175
0.0734091
0.064426
0.0552904
0.0464081
0.0380192
0.0302494
0.0231659
0.0168437
0.0114506
0.00728204
0.00463508
0.00345425
0.00306625
0.00280955
0.00232975
0.00155289
0.000851497
0.0863568
0.0799641
0.0719402
0.0631524
0.0542026
0.0454828
0.0372253
0.0295562
0.0225525
0.0163115
0.0110326
0.00701651
0.00456651
0.00350961
0.00315668
0.00288073
0.00236787
0.00156442
0.000850579
0.0846292
0.07838
0.0705324
0.0619293
0.0531539
0.0445851
0.0364491
0.0288738
0.021948
0.0157919
0.0106313
0.00677903
0.00451886
0.00357268
0.00324549
0.00294821
0.00240338
0.00157502
0.00084969
0.082972
0.0768605
0.069181
0.0607526
0.0521406
0.0437123
0.0356891
0.0282023
0.0213536
0.0152862
0.0102489
0.00656971
0.00448866
0.00364166
0.00333233
0.00301221
0.00243654
0.0015848
0.00084883
0.0813811
0.0754015
0.0678818
0.0596185
0.0511599
0.0428625
0.0349444
0.0275415
0.0207687
0.0147906
0.00988696
0.00638663
0.00447422
0.003715
0.00341697
0.00307296
0.0024676
0.00159389
0.000847998
0.0798524
0.0739988
0.0666313
0.0585238
0.0502089
0.0420337
0.0342139
0.0268906
0.020192
0.0143045
0.00954615
0.00622806
0.00447397
0.00379146
0.00349925
0.00313068
0.00249678
0.00160235
0.000847193
0.0783821
0.072649
0.0654258
0.0574655
0.0492855
0.0412245
0.0334971
0.0262507
0.0196301
0.013852
0.00922834
0.00609198
0.00448614
0.00387002
0.00357906
0.00318557
0.00252424
0.00161025
0.000846416
0.0769668
0.0713485
0.0642623
0.0564409
0.0483876
0.0404338
0.0327938
0.0256235
0.0190858
0.0134221
0.00893464
0.00598156
0.00450965
0.00394992
0.00365637
0.00323782
0.00255014
0.00161766
0.000845664
0.0756032
0.0700942
0.0631381
0.0554478
0.0475135
0.0396605
0.0321038
0.0250082
0.0185525
0.0129905
0.00866401
0.00589032
0.00454289
0.00403055
0.00373118
0.0032876
0.00257462
0.00162463
0.000844938
0.0742882
0.0688833
0.0620505
0.0544839
0.0466618
0.0389038
0.031427
0.0244053
0.0180341
0.0125869
0.00841791
0.00581644
0.00458426
0.00411142
0.00380354
0.00333509
0.00259779
0.00163121
0.000844237
0.0730191
0.0677132
0.0609972
0.0535475
0.0458311
0.0381631
0.0307633
0.0238151
0.01753
0.0122061
0.0081955
0.00575887
0.0046324
0.00419209
0.0038735
0.00338043
0.00261978
0.00163744
0.000843559
0.0717931
0.0665814
0.0599761
0.0526369
0.0450202
0.0374377
0.0301115
0.023234
0.0170303
0.0118416
0.00799487
0.00571642
0.00468617
0.00427223
0.00394113
0.00342377
0.00264067
0.00164335
0.000842905
0.0706078
0.0654856
0.0589853
0.0517505
0.0442282
0.0367268
0.0294724
0.022669
0.016568
0.0114977
0.00781477
0.0056877
0.00474455
0.00435155
0.00400651
0.00346526
0.00266056
0.00164898
0.000842274
0.069461
0.0644238
0.058023
0.0508871
0.0434542
0.0360306
0.0288471
0.0221216
0.0161256
0.0111744
0.00765661
0.00567168
0.00480673
0.00442987
0.00406972
0.003505
0.00267952
0.00165434
0.000841664
0.0683504
0.0633941
0.0570877
0.0500454
0.0426975
0.0353486
0.0282354
0.0215875
0.0156876
0.0108715
0.00751796
0.00566719
0.004872
0.00450702
0.00413083
0.0035431
0.00269762
0.00165945
0.000841075
0.0672738
0.0623947
0.0561779
0.0492244
0.0419574
0.0346807
0.0276363
0.0210649
0.0152594
0.0105877
0.00739631
0.00567291
0.00493973
0.00458289
0.00418994
0.00357968
0.00271494
0.00166434
0.000840507
0.0662295
0.0614239
0.0552922
0.0484231
0.0412333
0.0340263
0.0270502
0.0205564
0.0148486
0.0103228
0.00729056
0.00568761
0.00500939
0.00465741
0.00424711
0.00361483
0.00273151
0.00166902
0.000839958
0.0652159
0.0604803
0.0544295
0.0476407
0.0405247
0.033385
0.0264748
0.0200541
0.0144641
0.010078
0.00720002
0.00571021
0.00508048
0.00473052
0.00430245
0.00364862
0.00274739
0.00167351
0.000839428
0.0642316
0.0595625
0.0535886
0.0468762
0.0398307
0.0327559
0.0259106
0.0195696
0.0140962
0.00985226
0.00712389
0.00573977
0.00515259
0.00480219
0.00435602
0.00368114
0.00276263
0.00167781
0.000838916
0.0632752
0.0586692
0.0527685
0.046129
0.0391512
0.0321403
0.0253647
0.019123
0.0137472
0.00964479
0.00706125
0.00577544
0.00522536
0.00487238
0.00440791
0.00371247
0.00277727
0.00168195
0.000838422
0.0623455
0.0577994
0.0519683
0.0453983
0.0384858
0.0315381
0.0248323
0.0186752
0.0134135
0.00945639
0.00701135
0.00581649
0.00529852
0.00494108
0.00445819
0.00374268
0.00279134
0.00168593
0.000837944
0.0614411
0.0569518
0.0511871
0.0446836
0.0378343
0.0309488
0.0243117
0.0182385
0.0130955
0.0092849
0.00697327
0.00586225
0.0053718
0.00500831
0.00450692
0.00377182
0.00280489
0.00168977
0.000837482
0.0605608
0.0561255
0.0504241
0.0439844
0.0371963
0.030372
0.0238038
0.0178182
0.0127942
0.00912883
0.00694601
0.00591212
0.00544502
0.00507406
0.00455418
0.00379995
0.00281794
0.00169346
0.000837036
0.0597035
0.0553196
0.0496786
0.0433001
0.0365713
0.0298068
0.0233058
0.0174011
0.0125076
0.0089873
0.00692858
0.00596552
0.005518
0.00513836
0.00460002
0.00382714
0.00283052
0.00169703
0.000836605
0.058868
0.0545332
0.04895
0.0426303
0.0359592
0.0292542
0.0228224
0.017005
0.0122368
0.00885976
0.0069201
0.00602195
0.0055906
0.00520122
0.00464452
0.00385342
0.00284266
0.00170048
0.000836188
0.0580535
0.0537654
0.0482375
0.0419744
0.0353588
0.0287099
0.0223377
0.0166281
0.0119823
0.00874574
0.00691976
0.00608095
0.00566269
0.00526267
0.00468772
0.00387884
0.00285439
0.00170382
0.000835786
0.057259
0.0530156
0.0475405
0.0413318
0.0347705
0.0281807
0.0218922
0.0162689
0.0117441
0.00864472
0.00692685
0.0061421
0.00573418
0.00532275
0.00472968
0.00390345
0.00286572
0.00170705
0.000835396
0.0564835
0.0522829
0.0468586
0.0407024
0.0341945
0.0276641
0.0214494
0.0159251
0.0115219
0.00855614
0.00694071
0.00620505
0.00580497
0.00538148
0.00477045
0.00392729
0.00287668
0.00171017
0.00083502
0.0557264
0.0515667
0.0461911
0.0400859
0.0336305
0.0271591
0.0210172
0.0155932
0.0113158
0.00847951
0.00696075
0.00626948
0.005875
0.00543888
0.00481009
0.0039504
0.00288729
0.0017132
0.000834656
0.0549868
0.0508664
0.0455376
0.0394818
0.0330781
0.0266652
0.0205969
0.0152736
0.0111237
0.00841411
0.00698641
0.00633511
0.00594422
0.005495
0.00484864
0.00397281
0.00289757
0.00171614
0.000834305
0.0542642
0.0501814
0.0448978
0.0388898
0.0325368
0.0261822
0.0201884
0.0149668
0.0109448
0.00835917
0.00701715
0.00640171
0.00601257
0.00554987
0.00488615
0.00399455
0.00290752
0.001719
0.000833965
0.0535577
0.0495111
0.044271
0.0383097
0.0320068
0.025711
0.0197936
0.0146738
0.010779
0.00831399
0.00705246
0.00646906
0.00608002
0.00560351
0.00492265
0.00401566
0.00291718
0.00172177
0.000833636
0.0528668
0.048855
0.043657
0.037741
0.0314871
0.0252475
0.0193936
0.0143917
0.0106254
0.00827791
0.00709188
0.00653697
0.00614655
0.00565596
0.00495819
0.00403616
0.00292655
0.00172447
0.000833318
0.0521909
0.0482127
0.0430552
0.0371834
0.0309777
0.0247953
0.0190195
0.0141228
0.0104839
0.0082503
0.00713496
0.00660527
0.00621215
0.00570725
0.0049928
0.00405609
0.00293565
0.00172709
0.000833011
0.0515294
0.0475836
0.0424654
0.0366365
0.0304785
0.024355
0.0186618
0.0138676
0.0103541
0.00823059
0.00718131
0.00667382
0.00627679
0.00575743
0.00502653
0.00407546
0.00294448
0.00172965
0.000832714
0.0508819
0.0469673
0.0418872
0.0361003
0.0299899
0.0239266
0.018318
0.013626
0.0102356
0.00821824
0.00723056
0.00674246
0.00634048
0.0058065
0.0050594
0.0040943
0.00295307
0.00173214
0.000832427
0.0502479
0.0463635
0.0413202
0.0355745
0.0295116
0.0235097
0.0179872
0.0133985
0.0101284
0.00821277
0.00728238
0.0068111
0.0064032
0.00585452
0.00509145
0.00411263
0.00296143
0.00173456
0.000832149
0.0496269
0.0457716
0.0407642
0.035059
0.0290437
0.0231034
0.0176649
0.0131835
0.0100318
0.00821372
0.00733647
0.00687963
0.00646495
0.00590151
0.00512271
0.00413048
0.00296956
0.00173693
0.000831881
0.0490184
0.0451914
0.0402189
0.0345535
0.0285857
0.0227073
0.0173523
0.0129802
0.0099454
0.00822063
0.00739256
0.00694795
0.00652574
0.0059475
0.00515321
0.00414787
0.00297747
0.00173923
0.000831621
0.0484221
0.0446224
0.0396839
0.0340578
0.0281372
0.0223205
0.01705
0.0127881
0.00986867
0.00823308
0.00745041
0.00701599
0.00658556
0.00599252
0.00518298
0.00416481
0.00298517
0.00174149
0.00083137
0.0478376
0.0440645
0.0391592
0.0335719
0.0276988
0.0219455
0.0167588
0.0126073
0.00980111
0.00825064
0.00750979
0.00708369
0.00664444
0.00603659
0.00521204
0.00418133
0.00299268
0.00174369
0.000831127
0.0472646
0.0435172
0.0386443
0.033095
0.0272671
0.0215622
0.0164764
0.012437
0.00974224
0.00827292
0.00757051
0.00715099
0.00670237
0.00607975
0.00524043
0.00419743
0.003
0.00174584
0.000830893
0.0467026
0.0429802
0.0381389
0.0326268
0.0268438
0.0212
0.0162043
0.0122772
0.00969158
0.00829953
0.00763237
0.00721784
0.00675937
0.00612202
0.00526816
0.00421314
0.00300714
0.00174795
0.000830666
0.0461515
0.0424534
0.0376429
0.0321673
0.0264303
0.0208532
0.0159433
0.0121276
0.00964872
0.00833012
0.0076952
0.00728419
0.00681544
0.00616343
0.00529525
0.00422847
0.00301411
0.00175001
0.000830448
0.0456107
0.0419362
0.0371559
0.0317167
0.0260271
0.0205198
0.0156939
0.011988
0.00961325
0.00836435
0.00775884
0.00735001
0.00687061
0.006204
0.00532174
0.00424344
0.00302091
0.00175202
0.000830236
0.0450801
0.0414286
0.0366778
0.0312749
0.0256341
0.0201997
0.0154562
0.0118584
0.00958479
0.00840192
0.00782316
0.00741527
0.00692489
0.00624375
0.00534764
0.00425806
0.00302755
0.001754
0.000830032
0.0445594
0.0409303
0.0362085
0.030842
0.0252504
0.0198854
0.0152295
0.0117384
0.00956298
0.00844254
0.00788803
0.00747994
0.00697828
0.00628272
0.00537297
0.00427234
0.00303404
0.00175593
0.000829835
0.0440483
0.040441
0.0357478
0.0304177
0.0248752
0.019578
0.0150128
0.0116279
0.00954749
0.00848596
0.00795332
0.007544
0.00703081
0.00632091
0.00539775
0.00428629
0.00304038
0.00175783
0.000829644
0.0435465
0.0399605
0.0352956
0.0300016
0.0245079
0.0192785
0.0148058
0.0115263
0.00953795
0.00853192
0.00801894
0.00760743
0.00708249
0.00635837
0.005422
0.00429994
0.00304657
0.00175969
0.00082946
0.0430539
0.0394887
0.0348517
0.029594
0.0241501
0.0189876
0.0146083
0.0114334
0.00953403
0.0085802
0.00808479
0.00767021
0.00713333
0.0063951
0.00544573
0.00431328
0.00305264
0.00176151
0.000829282
0.0425701
0.0390253
0.0344157
0.0291932
0.0237908
0.0187048
0.0144201
0.0113488
0.0095354
0.00863059
0.00815079
0.00773233
0.00718335
0.00643112
0.00546898
0.00432633
0.00305857
0.0017633
0.000829111
0.0420949
0.0385702
0.0339873
0.0287983
0.0234356
0.0184294
0.0142409
0.0112722
0.00954173
0.00868289
0.00821686
0.00779378
0.00723256
0.00646646
0.00549174
0.0043391
0.00306437
0.00176506
0.000828945
0.0416282
0.0381229
0.0335663
0.028411
0.0230974
0.0181627
0.0140706
0.0112032
0.00955271
0.00873691
0.00828293
0.00785456
0.00728099
0.00650114
0.00551404
0.0043516
0.00307006
0.00176679
0.000828786
0.0411696
0.0376834
0.0331525
0.0280314
0.0227686
0.0179047
0.0139089
0.0111416
0.00956805
0.00879249
0.00834894
0.00791466
0.00732863
0.00653518
0.00553589
0.00436384
0.00307562
0.00176848
0.000828632
0.0407191
0.0372514
0.0327461
0.027661
0.0224592
0.0176568
0.013756
0.011087
0.00958746
0.00884946
0.00841485
0.00797407
0.00737552
0.00656858
0.0055573
0.00437583
0.00308108
0.00177015
0.000828484
0.0402763
0.0368269
0.0323473
0.0272993
0.022155
0.0174187
0.0136117
0.0110392
0.00961067
0.00890767
0.00848059
0.0080328
0.00742167
0.00660138
0.0055783
0.00438757
0.00308642
0.00177179
0.000828341
0.0398411
0.0364098
0.0319559
0.0269452
0.021855
0.0171896
0.013476
0.0109979
0.00963745
0.00896699
0.00854611
0.00809084
0.00746709
0.00663358
0.00559888
0.00439908
0.00309166
0.00177341
0.000828204
0.0394134
0.0359999
0.0315718
0.0265981
0.0215605
0.0169688
0.0133485
0.0109629
0.00966754
0.00902729
0.00861139
0.00814821
0.0075118
0.00666521
0.00561907
0.00441036
0.0030968
0.00177499
0.000828071
0.0389929
0.035597
0.0311945
0.0262573
0.0212722
0.0167562
0.0132292
0.0109338
0.00970073
0.00908845
0.00867638
0.00820489
0.0075558
0.00669627
0.00563888
0.00442142
0.00310184
0.00177656
0.000827944
0.0385796
0.0352011
0.0308244
0.0259249
0.020991
0.0165516
0.0131176
0.0109105
0.00973681
0.00915036
0.00874106
0.00826089
0.00759913
0.00672679
0.00565831
0.00443227
0.00310679
0.0017781
0.000827821
0.0381733
0.034812
0.0304598
0.0255881
0.0207161
0.0163548
0.0130137
0.0108926
0.00977558
0.00921293
0.00880538
0.00831621
0.00764178
0.00675677
0.00567739
0.00444291
0.00311164
0.00177961
0.000827703
0.0377738
0.0344292
0.0301001
0.0252556
0.0204473
0.0161655
0.0129171
0.01088
0.00981684
0.00927607
0.00886933
0.00837087
0.00768378
0.00678624
0.00569611
0.00445335
0.00311641
0.00178111
0.00082759
0.0373809
0.0340525
0.0297464
0.0249363
0.0201849
0.0159838
0.0128276
0.0108723
0.00986042
0.00933968
0.00893289
0.00842486
0.00772513
0.00681521
0.0057145
0.0044636
0.00312109
0.00178258
0.000827481
0.0369945
0.033682
0.0293991
0.0246275
0.0199295
0.0158095
0.012745
0.0108693
0.00990615
0.00940369
0.00899603
0.0084782
0.00776586
0.00684369
0.00573255
0.00447366
0.00312569
0.00178403
0.000827377
0.0366143
0.0333176
0.0290598
0.0243377
0.0196829
0.0156426
0.0126691
0.0108708
0.00995386
0.00946803
0.00905874
0.00853088
0.00780598
0.00687168
0.00575028
0.00448354
0.00313021
0.00178546
0.000827277
0.0362404
0.0329596
0.0287279
0.0240502
0.0194445
0.0154832
0.0125997
0.0108765
0.0100034
0.00953264
0.009121
0.00858291
0.00784549
0.00689922
0.00576771
0.00449324
0.00313465
0.00178687
0.000827181
0.0358726
0.0326078
0.0284026
0.0237654
0.0192137
0.0153313
0.0125367
0.0108863
0.0100546
0.00959744
0.0091828
0.00863431
0.00788441
0.00692629
0.00578483
0.00450277
0.00313902
0.00178826
0.000827089
0.0355109
0.0322622
0.0280831
0.0234847
0.01899
0.0151867
0.0124797
0.0108999
0.0101074
0.00966239
0.00924413
0.00868507
0.00792276
0.00695293
0.00580166
0.00451214
0.00314331
0.00178964
0.000827001
0.0351551
0.0319224
0.0277689
0.0232089
0.018773
0.0150493
0.0124288
0.0109171
0.0101616
0.00972743
0.00930497
0.00873522
0.00796054
0.00697914
0.0058182
0.00452134
0.00314754
0.001791
0.000826917
0.0348052
0.0315887
0.0274619
0.0229387
0.0185627
0.0149189
0.0123835
0.0109378
0.0102171
0.00979252
0.00936533
0.00878474
0.00799777
0.00700493
0.00583446
0.00453039
0.00315169
0.00179234
0.000826836
0.0344609
0.0312596
0.0271494
0.0226737
0.0183589
0.0147953
0.0123439
0.0109617
0.0102738
0.0098576
0.00942518
0.00883366
0.00803446
0.0070303
0.00585045
0.00453929
0.00315578
0.00179366
0.00082676
0.0341221
0.030935
0.0268423
0.0224138
0.0181616
0.0146785
0.0123095
0.0109886
0.0103316
0.00992265
0.00948453
0.00888198
0.00807062
0.00705528
0.00586618
0.00454804
0.00315981
0.00179497
0.000826687
0.0337885
0.0306146
0.0265401
0.0221577
0.0179705
0.0145681
0.0122804
0.0110185
0.0103904
0.00998761
0.00954338
0.00892971
0.00810626
0.00707987
0.00588166
0.00455664
0.00316377
0.00179626
0.000826617
0.0334599
0.0303001
0.0262577
0.0219081
0.0177856
0.0144642
0.0122562
0.0110511
0.0104501
0.0100525
0.00960171
0.00897685
0.00814139
0.00710408
0.00589688
0.00456511
0.00316767
0.00179754
0.000826551
0.0331367
0.0299924
0.0259864
0.0216659
0.0176071
0.0143664
0.0122368
0.0110863
0.0105106
0.0101172
0.00965953
0.00902342
0.00817603
0.00712792
0.00591186
0.00457344
0.00317152
0.0017988
0.000826488
0.0328187
0.029691
0.0257168
0.0214305
0.017435
0.0142748
0.012222
0.0111239
0.0105719
0.0101817
0.00971683
0.00906942
0.00821018
0.0071514
0.00592661
0.00458164
0.0031753
0.00180005
0.000826429
0.0325061
0.029395
0.0254492
0.0212014
0.0172692
0.0141892
0.0122116
0.0111638
0.0106338
0.0102461
0.00977362
0.00911487
0.00824386
0.00717452
0.00594112
0.00458971
0.00317903
0.00180128
0.000826372
0.0321987
0.0291042
0.0251849
0.0209782
0.0171098
0.0141095
0.0122055
0.0112058
0.0106962
0.0103102
0.00982989
0.00915976
0.00827706
0.0071973
0.00595542
0.00459766
0.00318271
0.0018025
0.000826319
0.0318963
0.0288177
0.0249245
0.0207606
0.0169566
0.0140355
0.0122034
0.0112499
0.0107592
0.0103741
0.00988563
0.00920411
0.00830982
0.00721974
0.00596949
0.00460548
0.00318633
0.00180371
0.000826269
0.0315992
0.0285377
0.0246684
0.0205486
0.0168096
0.0139671
0.0122052
0.0112958
0.0108227
0.0104377
0.00994087
0.00924793
0.00834212
0.00724186
0.00598335
0.00461319
0.00318991
0.00180491
0.000826222
0.031306
0.0282519
0.0244172
0.020342
0.0166686
0.0139042
0.0122108
0.0113435
0.0108866
0.010501
0.00999558
0.00929123
0.00837399
0.00726365
0.005997
0.00462078
0.00319343
0.00180609
0.000826177
0.0310162
0.027968
0.0241685
0.0201407
0.0165335
0.0138467
0.0122199
0.0113929
0.0109508
0.0105641
0.0100498
0.009334
0.00840542
0.00728513
0.00601044
0.00462826
0.00319691
0.00180726
0.000826136
0.0307303
0.0276946
0.0239239
0.0199446
0.0164043
0.0137943
0.0122325
0.0114438
0.0110153
0.0106268
0.0101035
0.00937627
0.00843644
0.0073063
0.00602369
0.00463563
0.00320034
0.00180842
0.000826097
0.0304501
0.0274402
0.0236853
0.0197538
0.0162808
0.013747
0.0122483
0.0114961
0.01108
0.0106892
0.0101567
0.00941803
0.00846704
0.00732717
0.00603675
0.00464289
0.00320372
0.00180957
0.000826061
0.0301755
0.0271887
0.0234525
0.0195683
0.0161629
0.0137046
0.0122673
0.0115498
0.0111449
0.0107513
0.0102093
0.0094593
0.00849724
0.00734775
0.00604962
0.00465005
0.00320705
0.00181071
0.000826028
0.0299059
0.0269386
0.0232252
0.0193882
0.0160507
0.013667
0.0122893
0.0116048
0.01121
0.010813
0.0102615
0.00950008
0.00852704
0.00736804
0.0060623
0.00465711
0.00321035
0.00181183
0.000825998
0.029641
0.0266907
0.023003
0.0192134
0.0159439
0.013634
0.0123141
0.0116609
0.0112752
0.0108743
0.0103132
0.00954039
0.00855645
0.00738805
0.00607481
0.00466407
0.0032136
0.00181295
0.000825969
0.0293803
0.0264457
0.0227856
0.019044
0.0158426
0.0136055
0.0123417
0.0117181
0.0113405
0.0109353
0.0103643
0.00958022
0.00858548
0.00740779
0.00608713
0.00467093
0.00321681
0.00181405
0.000825944
0.0291242
0.0262042
0.0225729
0.0188799
0.0157467
0.0135813
0.0123718
0.0117762
0.0114059
0.0109959
0.010415
0.00961959
0.00861414
0.00742726
0.00609929
0.0046777
0.00321998
0.00181515
0.000825921
0.0288689
0.0259668
0.0223648
0.018721
0.015656
0.0135614
0.0124045
0.0118354
0.0114712
0.0110562
0.0104652
0.00965851
0.00864243
0.00744646
0.00611128
0.00468438
0.00322311
0.00181624
0.0008259
0.0286114
0.0257323
0.0221613
0.0185673
0.0155705
0.0135456
0.0124394
0.0118953
0.0115366
0.011116
0.0105149
0.00969697
0.00867037
0.00746541
0.00612311
0.00469096
0.0032262
0.00181731
0.000825881
0.0283583
0.0255007
0.0219621
0.0184187
0.0154901
0.0135338
0.0124766
0.0119561
0.0116019
0.0111755
0.0105641
0.00973499
0.00869795
0.00748411
0.00613477
0.00469746
0.00322926
0.00181838
0.000825865
0.0281129
0.025273
0.0217672
0.0182751
0.0154147
0.0135258
0.0125159
0.0120176
0.0116671
0.0112345
0.0106129
0.00977258
0.00872518
0.00750256
0.00614628
0.00470388
0.00323228
0.00181944
0.000825851
0.0278818
0.02505
0.0215768
0.0181366
0.0153442
0.0135215
0.0125573
0.0120797
0.0117323
0.0112932
0.0106611
0.00980974
0.00875208
0.00752077
0.00615763
0.00471021
0.00323526
0.00182049
0.000825839
0.0276539
0.0248318
0.0213908
0.018003
0.0152785
0.0135209
0.0126005
0.0121425
0.0117973
0.0113514
0.010709
0.00984648
0.00877864
0.00753874
0.00616884
0.00471645
0.00323821
0.00182153
0.00082583
0.0274279
0.024618
0.0212092
0.0178743
0.0152176
0.0135236
0.0126455
0.0122058
0.0118622
0.0114092
0.0107563
0.0098828
0.00880488
0.00755648
0.0061799
0.00472262
0.00324112
0.00182256
0.000825822
0.0272042
0.0244085
0.0210322
0.0177505
0.0151613
0.0135297
0.0126923
0.0122696
0.011927
0.0114667
0.0108032
0.00991871
0.00883079
0.007574
0.00619081
0.00472872
0.00324401
0.00182359
0.000825817
0.0269834
0.0242031
0.0208595
0.0176316
0.0151095
0.0135391
0.0127407
0.0123338
0.0119916
0.0115237
0.0108496
0.00995422
0.0088564
0.00759129
0.00620159
0.00473473
0.00324686
0.0018246
0.000825813
0.0267657
0.0240017
0.0206913
0.0175174
0.0150622
0.0135515
0.0127906
0.0123985
0.012056
0.0115803
0.0108956
0.00998933
0.00888169
0.00760836
0.00621222
0.00474067
0.00324968
0.00182561
0.000825812
0.0265515
0.0238041
0.0205275
0.017408
0.0150192
0.013567
0.012842
0.0124635
0.0121202
0.0116364
0.0109411
0.0100241
0.00890668
0.00762523
0.00622273
0.00474654
0.00325246
0.00182661
0.000825812
0.0263406
0.0236105
0.020368
0.0173033
0.0149804
0.0135853
0.0128947
0.0125288
0.0121842
0.0116922
0.0109862
0.0100584
0.00893137
0.00764188
0.0062331
0.00475233
0.00325522
0.00182761
0.000825815
0.0261333
0.0234206
0.0202128
0.0172032
0.0149458
0.0136064
0.0129487
0.0125944
0.0122479
0.0117475
0.0110308
0.0100924
0.00895576
0.00765832
0.00624334
0.00475806
0.00325794
0.00182859
0.000825819
0.0259294
0.0232346
0.020062
0.0171077
0.0149152
0.0136302
0.0130039
0.0126603
0.0123114
0.0118025
0.0110751
0.0101259
0.00897987
0.00767457
0.00625345
0.00476371
0.00326064
0.00182957
0.000825825
0.025729
0.0230523
0.0199154
0.0170168
0.0148886
0.0136565
0.0130603
0.0127263
0.0123747
0.011857
0.0111188
0.0101592
0.0090037
0.00769061
0.00626344
0.0047693
0.0032633
0.00183054
0.000825833
0.025532
0.0228738
0.0197731
0.0169304
0.0148659
0.0136853
0.0131177
0.0127925
0.0124376
0.0119111
0.0111622
0.010192
0.00902725
0.00770646
0.00627331
0.00477482
0.00326594
0.00183151
0.000825842
0.0253384
0.022699
0.019635
0.0168484
0.0148469
0.0137164
0.0131762
0.0128589
0.0125003
0.0119647
0.0112052
0.0102245
0.00905053
0.00772213
0.00628306
0.00478028
0.00326855
0.00183246
0.000825853
0.0251482
0.0225279
0.0195011
0.0167707
0.0148316
0.0137498
0.0132355
0.0129254
0.0125628
0.012018
0.0112477
0.0102567
0.00907353
0.0077376
0.00629269
0.00478567
0.00327113
0.00183341
0.000825866
0.0249614
0.0223604
0.0193713
0.0166974
0.0148199
0.0137854
0.0132958
0.0129919
0.0126249
0.0120708
0.0112898
0.0102885
0.00909628
0.00775289
0.00630221
0.004791
0.00327369
0.00183436
0.00082588
0.024778
0.0221967
0.0192457
0.0166284
0.0148116
0.013823
0.0133569
0.0130585
0.0126867
0.0121233
0.0113316
0.01032
0.00911876
0.007768
0.00631161
0.00479627
0.00327622
0.0018353
0.000825896
0.0245979
0.0220366
0.0191242
0.0165636
0.0148068
0.0138626
0.0134187
0.0131252
0.0127483
0.0121753
0.0113729
0.0103511
0.00914099
0.00778293
0.0063209
0.00480148
0.00327872
0.00183623
0.000825914
0.024421
0.0218801
0.0190068
0.0165029
0.0148052
0.0139042
0.0134813
0.0131918
0.0128095
0.0122269
0.0114138
0.0103819
0.00916297
0.00779769
0.00633008
0.00480663
0.0032812
0.00183715
0.000825933
0.0242475
0.0217272
0.0188935
0.0164463
0.0148068
0.0139475
0.0135445
0.0132585
0.0128704
0.0122781
0.0114544
0.0104124
0.00918471
0.00781228
0.00633916
0.00481172
0.00328366
0.00183807
0.000825953
0.0240772
0.0215779
0.0187842
0.0163937
0.0148116
0.0139926
0.0136084
0.0133251
0.0129309
0.0123289
0.0114945
0.0104425
0.00920619
0.0078267
0.00634813
0.00481676
0.00328608
0.00183897
0.000825975
0.0239102
0.0214322
0.0186789
0.0163451
0.0148193
0.0140393
0.0136728
0.0133916
0.0129912
0.0123792
0.0115343
0.0104724
0.00922744
0.00784095
0.006357
0.00482174
0.00328849
0.00183988
0.000825998
0.0237464
0.02129
0.0185777
0.0163004
0.01483
0.0140877
0.0137377
0.0134581
0.0130511
0.0124292
0.0115737
0.0105019
0.00924846
0.00785505
0.00636577
0.00482666
0.00329087
0.00184077
0.000826023
0.0235858
0.0211515
0.0184803
0.0162595
0.0148434
0.0141375
0.0138031
0.0135245
0.0131106
0.0124788
0.0116127
0.0105311
0.00926924
0.00786898
0.00637443
0.00483153