/*--------------------------------*- C++ -*----------------------------------*\
| =========                 |                                                 |
| \\      /  F ield         | OpenFOAM: The Open Source CFD Toolbox           |
|  \\    /   O peration     | Version:  2212                                  |
|   \\  /    A nd           | Website:  www.openfoam.com                      |
|    \\/     M anipulation  |                                                 |
\*---------------------------------------------------------------------------*/
FoamFile
{
    version     2.0;
    format      ascii;
    arch        "LSB;label=32;scalar=64";
    class       volScalarField;
    location    "10000";
    object      nut;
}
// * * * * * * * * * * * * * * * * * * * * * * * * * * * * * * * * * * * * * //

dimensions      [0 2 -1 0 0 0 0];

internalField   nonuniform List<scalar> 
200000
(
0.000167694
0.000167696
0.000167699
0.000167696
0.000167576
0.00016721
0.000166343
0.000164488
0.000160625
0.000153102
0.00013961
0.000117776
8.69961e-05
5.15552e-05
2.19276e-05
6.23127e-06
1.62763e-06
7.52403e-07
8.46346e-07
0.000167673
0.000167651
0.000167557
0.000167216
0.000166357
0.000164346
0.000160125
0.000152201
0.00013906
0.000119794
9.50047e-05
6.73406e-05
4.10666e-05
2.05414e-05
8.28408e-06
3.02939e-06
1.77818e-06
1.69433e-06
1.10232e-06
0.000167611
0.000167455
0.000166968
0.000165746
0.000163045
0.00015777
0.000148655
0.000134707
0.000115796
9.30269e-05
6.86766e-05
4.56365e-05
2.65818e-05
1.32014e-05
5.68984e-06
2.4288e-06
1.72914e-06
1.62042e-06
1.0992e-06
0.000167416
0.000166898
0.000165624
0.000162853
0.000157569
0.000148694
0.000135491
0.000117995
9.72116e-05
7.496e-05
5.343e-05
3.46497e-05
2.00426e-05
1.01629e-05
4.59592e-06
2.16473e-06
1.5687e-06
1.40149e-06
1.07703e-06
0.000166907
0.0001658
0.000163332
0.000158599
0.000150628
0.000138744
0.000122923
0.000103949
8.32758e-05
6.26887e-05
4.39013e-05
2.82288e-05
1.63977e-05
8.49163e-06
4.01183e-06
2.03196e-06
1.40558e-06
1.13564e-06
1.04881e-06
0.000165987
0.00016404
0.00016012
0.00015335
0.000143039
0.00012902
0.000111821
9.25879e-05
7.28221e-05
5.40484e-05
3.75351e-05
2.412e-05
1.41479e-05
7.50162e-06
3.68755e-06
1.91588e-06
1.22001e-06
9.43911e-07
1.02544e-06
0.000164579
0.000161613
0.000156165
0.000147539
0.00013541
0.000120046
0.000102306
8.34454e-05
6.48441e-05
4.77421e-05
3.3063e-05
2.13321e-05
1.26774e-05
6.88873e-06
3.49393e-06
1.80745e-06
1.0594e-06
8.47656e-07
1.00617e-06
0.000162641
0.000158596
0.0001517
0.000141525
0.000128097
0.000111992
9.42285e-05
7.60404e-05
5.86337e-05
4.29984e-05
2.9802e-05
1.93623e-05
1.16779e-05
6.49339e-06
3.36447e-06
1.71149e-06
9.72387e-07
8.05503e-07
9.89195e-07
0.000160197
0.000155111
0.000146945
0.00013556
0.000121272
0.000104854
8.7374e-05
6.99819e-05
5.37096e-05
3.93409e-05
2.73541e-05
1.79256e-05
1.09739e-05
6.22264e-06
3.26059e-06
1.62824e-06
9.19487e-07
7.94626e-07
9.73813e-07
0.000157315
0.000151293
0.000142075
0.000129799
0.000114999
9.85582e-05
8.15349e-05
6.49712e-05
4.97407e-05
3.64615e-05
2.5471e-05
1.68473e-05
1.04583e-05
6.02141e-06
3.16577e-06
1.55687e-06
8.91376e-07
8.02928e-07
9.59853e-07
0.00015408
0.000147264
0.000137221
0.000124328
0.000109279
9.30093e-05
7.65338e-05
6.0784e-05
4.64957e-05
3.41545e-05
2.39917e-05
1.6016e-05
1.00638e-05
5.85551e-06
3.06586e-06
1.46171e-06
8.82975e-07
8.23641e-07
9.47239e-07
0.000150588
0.000143129
0.00013247
0.000119186
0.000104083
8.81112e-05
7.22246e-05
5.72507e-05
4.38081e-05
3.22762e-05
2.2806e-05
1.53568e-05
9.74665e-06
5.70838e-06
2.97575e-06
1.42928e-06
8.9635e-07
8.53491e-07
9.35904e-07
0.000146922
0.000138971
0.00012788
0.000114388
9.93712e-05
8.37752e-05
6.84877e-05
5.42411e-05
4.15548e-05
3.07231e-05
2.18355e-05
1.48165e-05
9.47391e-06
5.55555e-06
2.86162e-06
1.406e-06
9.28232e-07
8.90253e-07
9.25811e-07
0.00014316
0.000134854
0.000123486
0.000109926
9.50972e-05
7.99233e-05
6.52266e-05
5.16546e-05
3.96434e-05
2.9419e-05
2.10237e-05
1.43571e-05
9.22439e-06
5.40001e-06
2.77928e-06
1.39378e-06
9.7825e-07
9.32457e-07
9.16939e-07
0.000139373
0.000130823
0.000119306
0.000105786
9.12159e-05
7.6488e-05
6.23625e-05
4.94122e-05
3.80034e-05
2.83068e-05
2.03284e-05
1.39513e-05
8.98471e-06
5.24126e-06
2.70186e-06
1.39528e-06
1.04306e-06
9.78853e-07
9.09241e-07
0.00013561
0.000126912
0.000115346
0.00010195
8.76847e-05
7.34113e-05
5.98309e-05
4.74512e-05
3.65797e-05
2.73425e-05
1.97176e-05
1.35781e-05
8.74375e-06
5.07179e-06
2.61517e-06
1.41276e-06
1.11881e-06
1.02815e-06
9.02653e-07
0.000131909
0.000123141
0.000111607
9.83939e-05
8.44645e-05
7.06436e-05
5.75789e-05
4.57213e-05
3.5329e-05
2.64917e-05
1.91666e-05
1.32223e-05
8.49494e-06
4.8921e-06
2.53213e-06
1.44465e-06
1.20188e-06
1.07894e-06
8.97093e-07
0.000128299
0.000119523
0.000108083
9.50966e-05
8.152e-05
6.81424e-05
5.55625e-05
4.41816e-05
3.42163e-05
2.5727e-05
1.86556e-05
1.287e-05
8.22656e-06
4.69636e-06
2.45691e-06
1.48872e-06
1.29064e-06
1.12984e-06
8.92451e-07
0.000124797
0.000116065
0.000104765
9.20357e-05
7.88199e-05
6.58716e-05
5.37452e-05
4.27987e-05
3.32137e-05
2.5027e-05
1.81698e-05
1.25152e-05
7.95072e-06
4.51845e-06
2.39961e-06
1.555e-06
1.38352e-06
1.17978e-06
8.88605e-07
0.000121417
0.000112767
0.000101643
8.91902e-05
7.63362e-05
6.38001e-05
5.20962e-05
4.15448e-05
3.22982e-05
2.43742e-05
1.76979e-05
1.21521e-05
7.66041e-06
4.32038e-06
2.35029e-06
1.63367e-06
1.47821e-06
1.22789e-06
8.85434e-07
0.000118165
0.000109628
9.87039e-05
8.65406e-05
7.40441e-05
6.19012e-05
5.05897e-05
4.03974e-05
3.14513e-05
2.37551e-05
1.72316e-05
1.17785e-05
7.36151e-06
4.13952e-06
2.32007e-06
1.72095e-06
1.57229e-06
1.27343e-06
8.82818e-07
0.000115047
0.000106643
9.59373e-05
8.40687e-05
7.19218e-05
6.01519e-05
4.92041e-05
3.93372e-05
3.06579e-05
2.31588e-05
1.67641e-05
1.13907e-05
7.05295e-06
3.96716e-06
2.31226e-06
1.81481e-06
1.66376e-06
1.3158e-06
8.80644e-07
0.000112061
0.000103808
9.33307e-05
8.17579e-05
6.99499e-05
5.85325e-05
4.79207e-05
3.83486e-05
2.99055e-05
2.25768e-05
1.6292e-05
1.09935e-05
6.75376e-06
3.81102e-06
2.32516e-06
1.91306e-06
1.75118e-06
1.35455e-06
8.78808e-07
0.000109205
0.000101114
9.08726e-05
7.95929e-05
6.81115e-05
5.70259e-05
4.67241e-05
3.74184e-05
2.91843e-05
2.20031e-05
1.58141e-05
1.059e-05
6.45185e-06
3.67439e-06
2.36428e-06
2.01453e-06
1.83375e-06
1.38953e-06
8.77221e-07
0.000106478
9.85558e-05
8.85519e-05
7.75599e-05
6.63915e-05
5.56172e-05
4.56008e-05
3.65358e-05
2.84865e-05
2.14336e-05
1.533e-05
1.01833e-05
6.16553e-06
3.55789e-06
2.41759e-06
2.11721e-06
1.91113e-06
1.4208e-06
8.75814e-07
0.000103874
9.61246e-05
8.63581e-05
7.56465e-05
6.47766e-05
5.42939e-05
4.45398e-05
3.56918e-05
2.78062e-05
2.08662e-05
1.48423e-05
9.78008e-06
5.89595e-06
3.47052e-06
2.48185e-06
2.21912e-06
1.98322e-06
1.44863e-06
8.74535e-07
0.000101388
9.38133e-05
8.42814e-05
7.38415e-05
6.32554e-05
5.30449e-05
4.35316e-05
3.48793e-05
2.71387e-05
2.02983e-05
1.43477e-05
9.37351e-06
5.64307e-06
3.40963e-06
2.55521e-06
2.31875e-06
2.0501e-06
1.47336e-06
8.73349e-07
9.9015e-05
9.16144e-05
8.23127e-05
7.21345e-05
6.18173e-05
5.18607e-05
4.25682e-05
3.40923e-05
2.64809e-05
1.97306e-05
1.38562e-05
8.9926e-06
5.41478e-06
3.37319e-06
2.63569e-06
2.41508e-06
2.11193e-06
1.49535e-06
8.72232e-07
9.67491e-05
8.95209e-05
8.04435e-05
7.05165e-05
6.04535e-05
5.07332e-05
4.16431e-05
3.33265e-05
2.58309e-05
1.91645e-05
1.337e-05
8.61989e-06
5.20762e-06
3.36415e-06
2.72208e-06
2.50758e-06
2.16899e-06
1.51494e-06
8.71168e-07
9.45848e-05
8.75258e-05
7.8666e-05
6.89792e-05
5.91561e-05
4.96553e-05
4.07507e-05
3.25783e-05
2.51877e-05
1.8601e-05
1.28905e-05
8.26474e-06
5.02929e-06
3.37253e-06
2.81245e-06
2.59602e-06
2.22164e-06
1.53245e-06
8.70146e-07
9.25165e-05
8.56227e-05
7.6973e-05
6.75154e-05
5.79179e-05
4.86213e-05
3.98868e-05
3.18454e-05
2.45512e-05
1.80428e-05
1.24227e-05
7.92902e-06
4.88085e-06
3.39549e-06
2.90494e-06
2.68034e-06
2.27027e-06
1.54818e-06
8.6916e-07
9.05387e-05
8.38054e-05
7.53578e-05
6.61183e-05
5.6733e-05
4.76259e-05
3.90475e-05
3.11256e-05
2.392e-05
1.74857e-05
1.19535e-05
7.61391e-06
4.75985e-06
3.43126e-06
2.99811e-06
2.76053e-06
2.31528e-06
1.56239e-06
8.68206e-07
8.8646e-05
8.20682e-05
7.38145e-05
6.4782e-05
5.55961e-05
4.66649e-05
3.82299e-05
3.04175e-05
2.32952e-05
1.69384e-05
1.15158e-05
7.32458e-06
4.66364e-06
3.47788e-06
3.09084e-06
2.83668e-06
2.35703e-06
1.57531e-06
8.67283e-07
8.68335e-05
8.04057e-05
7.23376e-05
6.35014e-05
5.45024e-05
4.57346e-05
3.74318e-05
2.97206e-05
2.26785e-05
1.64034e-05
1.10956e-05
7.05773e-06
4.59494e-06
3.534e-06
3.18242e-06
2.9089e-06
2.39584e-06
1.58712e-06
8.6639e-07
8.50965e-05
7.88128e-05
7.0922e-05
6.22716e-05
5.34479e-05
4.4832e-05
3.66514e-05
2.90345e-05
2.20708e-05
1.5881e-05
1.06922e-05
6.81909e-06
4.5473e-06
3.5979e-06
3.27237e-06
2.9774e-06
2.43201e-06
1.59798e-06
8.65526e-07
8.34302e-05
7.7285e-05
6.95632e-05
6.10884e-05
5.24291e-05
4.39545e-05
3.58873e-05
2.83594e-05
2.14732e-05
1.53726e-05
1.03079e-05
6.60879e-06
4.51724e-06
3.66777e-06
3.36036e-06
3.04238e-06
2.46579e-06
1.60801e-06
8.64689e-07
8.18305e-05
7.5818e-05
6.82569e-05
5.99482e-05
5.1443e-05
4.31e-05
3.51385e-05
2.7695e-05
2.08852e-05
1.48744e-05
9.94403e-06
6.42488e-06
4.50304e-06
3.74205e-06
3.44613e-06
3.10408e-06
2.49744e-06
1.61733e-06
8.6388e-07
8.02934e-05
7.44076e-05
6.69995e-05
5.88475e-05
5.04869e-05
4.22668e-05
3.44041e-05
2.70407e-05
2.03054e-05
1.43857e-05
9.60147e-06
6.26563e-06
4.50314e-06
3.81948e-06
3.52952e-06
3.16272e-06
2.52718e-06
1.62602e-06
8.63099e-07
7.8815e-05
7.30503e-05
6.57874e-05
5.77834e-05
4.95584e-05
4.14532e-05
3.36834e-05
2.63973e-05
1.97405e-05
1.39308e-05
9.28205e-06
6.12901e-06
4.51575e-06
3.89904e-06
3.61042e-06
3.21849e-06
2.55518e-06
1.63413e-06
8.62344e-07
7.73919e-05
7.17427e-05
6.46176e-05
5.67532e-05
4.86556e-05
4.06582e-05
3.29763e-05
2.57667e-05
1.91933e-05
1.34987e-05
8.98688e-06
6.01822e-06
4.53978e-06
3.97995e-06
3.68881e-06
3.27159e-06
2.5816e-06
1.64175e-06
8.61614e-07
7.60208e-05
7.04815e-05
6.34872e-05
5.57546e-05
4.77768e-05
3.98807e-05
3.22826e-05
2.51482e-05
1.86572e-05
1.30648e-05
8.71491e-06
5.92671e-06
4.57361e-06
4.06162e-06
3.76468e-06
3.3222e-06
2.60657e-06
1.64892e-06
8.6091e-07
7.46986e-05
6.9264e-05
6.23936e-05
5.47855e-05
4.69204e-05
3.91199e-05
3.16022e-05
2.4542e-05
1.8136e-05
1.26591e-05
8.46761e-06
5.85268e-06
4.61564e-06
4.14353e-06
3.83807e-06
3.37049e-06
2.63023e-06
1.65569e-06
8.6023e-07
7.34225e-05
6.80875e-05
6.13345e-05
5.38439e-05
4.60852e-05
3.83752e-05
3.09348e-05
2.39487e-05
1.76293e-05
1.22764e-05
8.24414e-06
5.79507e-06
4.6645e-06
4.22525e-06
3.90905e-06
3.4166e-06
2.65267e-06
1.6621e-06
8.59574e-07
7.21898e-05
6.69494e-05
6.03079e-05
5.29284e-05
4.527e-05
3.76458e-05
3.02796e-05
2.33645e-05
1.71269e-05
1.191e-05
8.04258e-06
5.75268e-06
4.71903e-06
4.30643e-06
3.97768e-06
3.4607e-06
2.67401e-06
1.66819e-06
8.58941e-07
7.0998e-05
6.58477e-05
5.93116e-05
5.20372e-05
4.44737e-05
3.69312e-05
2.9637e-05
2.27965e-05
1.66622e-05
1.15644e-05
7.86167e-06
5.72411e-06
4.77822e-06
4.38681e-06
4.04404e-06
3.50291e-06
2.69432e-06
1.67399e-06
8.5833e-07
6.98449e-05
6.47801e-05
5.83441e-05
5.11691e-05
4.36955e-05
3.62312e-05
2.90084e-05
2.22461e-05
1.62174e-05
1.12394e-05
7.70284e-06
5.70833e-06
4.84124e-06
4.46617e-06
4.1082e-06
3.54336e-06
2.7137e-06
1.67951e-06
8.57741e-07
6.87282e-05
6.37447e-05
5.74037e-05
5.03228e-05
4.29346e-05
3.55456e-05
2.83934e-05
2.17093e-05
1.57771e-05
1.09349e-05
7.56363e-06
5.70415e-06
4.90738e-06
4.54436e-06
4.17025e-06
3.58215e-06
2.73221e-06
1.68478e-06
8.57172e-07
6.76458e-05
6.27399e-05
5.64889e-05
4.94973e-05
4.21905e-05
3.4874e-05
2.77911e-05
2.11839e-05
1.53467e-05
1.06497e-05
7.44153e-06
5.71027e-06
4.97601e-06
4.62127e-06
4.23027e-06
3.61939e-06
2.74991e-06
1.68983e-06
8.56624e-07
6.65957e-05
6.17638e-05
5.55984e-05
4.86917e-05
4.14625e-05
3.42161e-05
2.72018e-05
2.06727e-05
1.49338e-05
1.03835e-05
7.33543e-06
5.72543e-06
5.04659e-06
4.69682e-06
4.28834e-06
3.65519e-06
2.76685e-06
1.69466e-06
8.56095e-07
6.55765e-05
6.0815e-05
5.4731e-05
4.7905e-05
4.07501e-05
3.35713e-05
2.66234e-05
2.01677e-05
1.45473e-05
1.01375e-05
7.24463e-06
5.74854e-06
5.11861e-06
4.77095e-06
4.34456e-06
3.68961e-06
2.7831e-06
1.69929e-06
8.55584e-07
6.45868e-05
5.98922e-05
5.38855e-05
4.71364e-05
4.00523e-05
3.29389e-05
2.60562e-05
1.96806e-05
1.41774e-05
9.9107e-06
7.16834e-06
5.77867e-06
5.19167e-06
4.84362e-06
4.39899e-06
3.72275e-06
2.7987e-06
1.70374e-06
8.55091e-07
6.36252e-05
5.8994e-05
5.3061e-05
4.63851e-05
3.93691e-05
3.23199e-05
2.55074e-05
1.92317e-05
1.38267e-05
9.70225e-06
7.10563e-06
5.81496e-06
5.26541e-06
4.91481e-06
4.45172e-06
3.75468e-06
2.81368e-06
1.70802e-06
8.54616e-07
6.26904e-05
5.81194e-05
5.22564e-05
4.56504e-05
3.87002e-05
3.17145e-05
2.49722e-05
1.87815e-05
1.34912e-05
9.51299e-06
7.05573e-06
5.85667e-06
5.33953e-06
4.98451e-06
4.50283e-06
3.78547e-06
2.82809e-06
1.71213e-06
8.54157e-07
6.17811e-05
5.72672e-05
5.14709e-05
4.49319e-05
3.80452e-05
3.1122e-05
2.44488e-05
1.83426e-05
1.31716e-05
9.34075e-06
7.01774e-06
5.90313e-06
5.41379e-06
5.05271e-06
4.55237e-06
3.81518e-06
2.84197e-06
1.7161e-06
8.53714e-07
6.0896e-05
5.64364e-05
5.07038e-05
4.42289e-05
3.74037e-05
3.05422e-05
2.39382e-05
1.792e-05
1.28688e-05
9.184e-06
6.99063e-06
5.95373e-06
5.48799e-06
5.11942e-06
4.60042e-06
3.84387e-06
2.85533e-06
1.71993e-06
8.53286e-07
6.0034e-05
5.56261e-05
4.99543e-05
4.35409e-05
3.67754e-05
2.9974e-05
2.34376e-05
1.75007e-05
1.25807e-05
9.0419e-06
6.97342e-06
6.0079e-06
5.56195e-06
5.18467e-06
4.64704e-06
3.87159e-06
2.86823e-06
1.72362e-06
8.52874e-07
5.9194e-05
5.48354e-05
4.92217e-05
4.28675e-05
3.61599e-05
2.94184e-05
2.29516e-05
1.71026e-05
1.23086e-05
8.91387e-06
6.96523e-06
6.06513e-06
5.63553e-06
5.24847e-06
4.69229e-06
3.8984e-06
2.88067e-06
1.7272e-06
8.52475e-07
5.8375e-05
5.40635e-05
4.85053e-05
4.2208e-05
3.55563e-05
2.88712e-05
2.24643e-05
1.67237e-05
1.20529e-05
8.79944e-06
6.96524e-06
6.12494e-06
5.70861e-06
5.31085e-06
4.73624e-06
3.92435e-06
2.8927e-06
1.73065e-06
8.52091e-07
5.75761e-05
5.33096e-05
4.78046e-05
4.1562e-05
3.49649e-05
2.83392e-05
2.20165e-05
1.63626e-05
1.18135e-05
8.69809e-06
6.97273e-06
6.18693e-06
5.78108e-06
5.37184e-06
4.77893e-06
3.94947e-06
2.90432e-06
1.734e-06
8.51719e-07
5.67965e-05
5.25729e-05
4.71189e-05
4.09292e-05
3.43858e-05
2.78198e-05
2.15714e-05
1.60171e-05
1.15903e-05
8.60927e-06
6.98704e-06
6.25074e-06
5.85286e-06
5.43147e-06
4.82042e-06
3.9738e-06
2.91556e-06
1.73724e-06
8.5136e-07
5.60352e-05
5.18528e-05
4.64479e-05
4.03093e-05
3.38188e-05
2.73121e-05
2.11368e-05
1.56834e-05
1.13832e-05
8.53246e-06
7.00757e-06
6.31604e-06
5.92386e-06
5.48977e-06
4.86077e-06
3.99739e-06
2.92645e-06
1.74038e-06
8.51014e-07
5.52916e-05
5.11487e-05
4.57909e-05
3.9702e-05
3.32634e-05
2.68156e-05
2.07143e-05
1.53622e-05
1.11902e-05
8.46695e-06
7.03376e-06
6.38256e-06
5.99405e-06
5.54677e-06
4.90001e-06
4.02028e-06
2.93699e-06
1.74343e-06
8.5068e-07
5.4565e-05
5.046e-05
4.51475e-05
3.91068e-05
3.27192e-05
2.63301e-05
2.03037e-05
1.50539e-05
1.10105e-05
8.41198e-06
7.06508e-06
6.45006e-06
6.06336e-06
5.6025e-06
4.9382e-06
4.04249e-06
2.94721e-06
1.7464e-06
8.50357e-07
5.38547e-05
4.9786e-05
4.45174e-05
3.85236e-05
3.21864e-05
2.58563e-05
1.99068e-05
1.47593e-05
1.08439e-05
8.36684e-06
7.101e-06
6.51832e-06
6.13178e-06
5.65699e-06
4.97537e-06
4.06405e-06
2.95713e-06
1.74928e-06
8.50046e-07
5.316e-05
4.91264e-05
4.39e-05
3.79518e-05
3.16639e-05
2.53904e-05
1.95047e-05
1.44758e-05
1.06897e-05
8.33085e-06
7.14107e-06
6.58715e-06
6.19927e-06
5.71029e-06
5.01156e-06
4.085e-06
2.96675e-06
1.75208e-06
8.49745e-07
5.24805e-05
4.84806e-05
4.3295e-05
3.73912e-05
3.11517e-05
2.49358e-05
1.91287e-05
1.42056e-05
1.05476e-05
8.30339e-06
7.18483e-06
6.65637e-06
6.26581e-06
5.76242e-06
5.04682e-06
4.10536e-06
2.9761e-06
1.7548e-06
8.49454e-07
5.18154e-05
4.78481e-05
4.2702e-05
3.68414e-05
3.06499e-05
2.44931e-05
1.87691e-05
1.39491e-05
1.04172e-05
8.28388e-06
7.23188e-06
6.72585e-06
6.3314e-06
5.81341e-06
5.08118e-06
4.12516e-06
2.98518e-06
1.75746e-06
8.49174e-07
5.11644e-05
4.72285e-05
4.21207e-05
3.63023e-05
3.01587e-05
2.40625e-05
1.84235e-05
1.37063e-05
1.02984e-05
8.27179e-06
7.28186e-06
6.79543e-06
6.39602e-06
5.86329e-06
5.11467e-06
4.14442e-06
2.99401e-06
1.76005e-06
8.48903e-07
5.05269e-05
4.66213e-05
4.15507e-05
3.57737e-05
2.96779e-05
2.36434e-05
1.8091e-05
1.34777e-05
1.01907e-05
8.26662e-06
7.33443e-06
6.86501e-06
6.45966e-06
5.91211e-06
5.14733e-06
4.16317e-06
3.0026e-06
1.76257e-06
8.48642e-07
4.99025e-05
4.60263e-05
4.09916e-05
3.52554e-05
2.92074e-05
2.3235e-05
1.7767e-05
1.32617e-05
1.00938e-05
8.26791e-06
7.38929e-06
6.93447e-06
6.52234e-06
5.95989e-06
5.1792e-06
4.18143e-06
3.01095e-06
1.76503e-06
8.48389e-07
4.92908e-05
4.54429e-05
4.04434e-05
3.47473e-05
2.8747e-05
2.28367e-05
1.74528e-05
1.30574e-05
1.00072e-05
8.27522e-06
7.44617e-06
7.00374e-06
6.58404e-06
6.00666e-06
5.21029e-06
4.19921e-06
3.01909e-06
1.76743e-06
8.48146e-07
4.86913e-05
4.48709e-05
3.99056e-05
3.42489e-05
2.82961e-05
2.24479e-05
1.7149e-05
1.28645e-05
9.9303e-06
8.2881e-06
7.50483e-06
7.07273e-06
6.64477e-06
6.05244e-06
5.24064e-06
4.21654e-06
3.02702e-06
1.76978e-06
8.47911e-07
4.81036e-05
4.43099e-05
3.9378e-05
3.37604e-05
2.78555e-05
2.2071e-05
1.68563e-05
1.26828e-05
9.86262e-06
8.30613e-06
7.56504e-06
7.14137e-06
6.70454e-06
6.09727e-06
5.27028e-06
4.23344e-06
3.03475e-06
1.77207e-06
8.47684e-07
4.75275e-05
4.37597e-05
3.88603e-05
3.32809e-05
2.74214e-05
2.16857e-05
1.65725e-05
1.25118e-05
9.80367e-06
8.32892e-06
7.6266e-06
7.20961e-06
6.76336e-06
6.14117e-06
5.29923e-06
4.24993e-06
3.04228e-06
1.77431e-06
8.47466e-07
4.69625e-05
4.32199e-05
3.83523e-05
3.28102e-05
2.69959e-05
2.13216e-05
1.6299e-05
1.23513e-05
9.75301e-06
8.35606e-06
7.68931e-06
7.2774e-06
6.82124e-06
6.18418e-06
5.32751e-06
4.26601e-06
3.04963e-06
1.7765e-06
8.47255e-07
4.64083e-05
4.26901e-05
3.78536e-05
3.23483e-05
2.65803e-05
2.0973e-05
1.60367e-05
1.2201e-05
9.71019e-06
8.38722e-06
7.753e-06
7.34469e-06
6.87819e-06
6.22631e-06
5.35515e-06
4.2817e-06
3.0568e-06
1.77865e-06
8.47052e-07
4.58647e-05
4.21702e-05
3.73639e-05
3.18953e-05
2.61748e-05
2.06379e-05
1.5786e-05
1.20608e-05
9.6748e-06
8.42205e-06
7.81752e-06
7.41145e-06
6.93423e-06
6.2676e-06
5.38218e-06
4.29703e-06
3.06381e-06
1.78075e-06
8.46856e-07
4.53312e-05
4.16599e-05
3.68833e-05
3.14512e-05
2.57798e-05
2.03161e-05
1.55472e-05
1.19307e-05
9.64648e-06
8.46025e-06
7.88272e-06
7.47765e-06
6.98936e-06
6.30806e-06
5.40861e-06
4.312e-06
3.07065e-06
1.78281e-06
8.46667e-07
4.48077e-05
4.11589e-05
3.64115e-05
3.1016e-05
2.53941e-05
2.00001e-05
1.53193e-05
1.18103e-05
9.62485e-06
8.50153e-06
7.94847e-06
7.54325e-06
7.0436e-06
6.34773e-06
5.43446e-06
4.32663e-06
3.07733e-06
1.78483e-06
8.46484e-07
4.42938e-05
4.0667e-05
3.59484e-05
3.05894e-05
2.50169e-05
1.96911e-05
1.51016e-05
1.16993e-05
9.60958e-06
8.54562e-06
8.01466e-06
7.60823e-06
7.09697e-06
6.38661e-06
5.45975e-06
4.34093e-06
3.08387e-06
1.78681e-06
8.46309e-07
4.37893e-05
4.01839e-05
3.54937e-05
3.01711e-05
2.46477e-05
1.93901e-05
1.48937e-05
1.15974e-05
9.60031e-06
8.59228e-06
8.08118e-06
7.67259e-06
7.14948e-06
6.42475e-06
5.48451e-06
4.35491e-06
3.09026e-06
1.78875e-06
8.4614e-07
4.3294e-05
3.97096e-05
3.50474e-05
2.97613e-05
2.4288e-05
1.90978e-05
1.46952e-05
1.15042e-05
9.5967e-06
8.64127e-06
8.14793e-06
7.73629e-06
7.20115e-06
6.46215e-06
5.50875e-06
4.36859e-06
3.09651e-06
1.79065e-06
8.45977e-07
4.28076e-05
3.92437e-05
3.46091e-05
2.93584e-05
2.39268e-05
1.88135e-05
1.45062e-05
1.14194e-05
9.59841e-06
8.6924e-06
8.21484e-06
7.79932e-06
7.25199e-06
6.49884e-06
5.53248e-06
4.38197e-06
3.10262e-06
1.79252e-06
8.45821e-07
4.23299e-05
3.87861e-05
3.41785e-05
2.89614e-05
2.35698e-05
1.85367e-05
1.43261e-05
1.13426e-05
9.60512e-06
8.74546e-06
8.28182e-06
7.86169e-06
7.30201e-06
6.53484e-06
5.55573e-06
4.39506e-06
3.10861e-06
1.79436e-06
8.4567e-07
4.18607e-05
3.83364e-05
3.37552e-05
2.85721e-05
2.32298e-05
1.82686e-05
1.4155e-05
1.12735e-05
9.61652e-06
8.80025e-06
8.34882e-06
7.92337e-06
7.35123e-06
6.57017e-06
5.57851e-06
4.40788e-06
3.11447e-06
1.79616e-06
8.45525e-07
4.13997e-05
3.78946e-05
3.33392e-05
2.81904e-05
2.28993e-05
1.80093e-05
1.39926e-05
1.12117e-05
9.6323e-06
8.85661e-06
8.41575e-06
7.98437e-06
7.39968e-06
6.60484e-06
5.60083e-06
4.42043e-06
3.12022e-06
1.79793e-06
8.45386e-07
4.09467e-05
3.74603e-05
3.29307e-05
2.78181e-05
2.25883e-05
1.77602e-05
1.3839e-05
1.11571e-05
9.65219e-06
8.91438e-06
8.48257e-06
8.04468e-06
7.44736e-06
6.63888e-06
5.62272e-06
4.43273e-06
3.12585e-06
1.79968e-06
8.45252e-07
4.05015e-05
3.70335e-05
3.25297e-05
2.74545e-05
2.22825e-05
1.75209e-05
1.36941e-05
1.11093e-05
9.67591e-06
8.97341e-06
8.54923e-06
8.1043e-06
7.49428e-06
6.6723e-06
5.64417e-06
4.44478e-06
3.13137e-06
1.80139e-06
8.45124e-07
4.0064e-05
3.66141e-05
3.21363e-05
2.70985e-05
2.1981e-05
1.72906e-05
1.35578e-05
1.1068e-05
9.70322e-06
9.03355e-06
8.61569e-06
8.16324e-06
7.54047e-06
6.70513e-06
5.66521e-06
4.45659e-06
3.13678e-06
1.80308e-06
8.45001e-07
3.9634e-05
3.6202e-05
3.17501e-05
2.67496e-05
2.16849e-05
1.70688e-05
1.34298e-05
1.10331e-05
9.73388e-06
9.09469e-06
8.68189e-06
8.22148e-06
7.58594e-06
6.73736e-06
5.68585e-06
4.46817e-06
3.14208e-06
1.80474e-06
8.44883e-07
3.92113e-05
3.5797e-05
3.13708e-05
2.6407e-05
2.13952e-05
1.68552e-05
1.331e-05
1.10041e-05
9.76765e-06
9.15669e-06
8.7478e-06
8.27904e-06
7.63071e-06
6.76903e-06
5.7061e-06
4.47952e-06
3.14729e-06
1.80637e-06
8.44769e-07
3.87958e-05
3.53991e-05
3.09987e-05
2.60729e-05
2.11125e-05
1.66496e-05
1.3198e-05
1.0981e-05
9.80434e-06
9.21946e-06
8.8134e-06
8.33591e-06
7.67478e-06
6.80015e-06
5.72597e-06
4.49066e-06
3.1524e-06
1.80798e-06
8.44661e-07
3.83873e-05
3.50078e-05
3.06322e-05
2.57343e-05
2.08362e-05
1.64518e-05
1.30937e-05
1.09633e-05
9.84374e-06
9.28289e-06
8.87864e-06
8.3921e-06
7.71818e-06
6.83072e-06
5.74548e-06
4.50158e-06
3.15742e-06
1.80957e-06
8.44557e-07
3.79856e-05
3.4623e-05
3.02706e-05
2.54e-05
2.0566e-05
1.62617e-05
1.29968e-05
1.09509e-05
9.88566e-06
9.3469e-06
8.94352e-06
8.44762e-06
7.76091e-06
6.86078e-06
5.76463e-06
4.51231e-06
3.16235e-06
1.81113e-06
8.44458e-07
3.75907e-05
3.42444e-05
2.9915e-05
2.50791e-05
2.03023e-05
1.60791e-05
1.2907e-05
1.09435e-05
9.92991e-06
9.41139e-06
9.00799e-06
8.50246e-06
7.803e-06
6.89032e-06
5.78344e-06
4.52283e-06
3.16719e-06
1.81267e-06
8.44363e-07
3.72021e-05
3.38718e-05
2.95659e-05
2.47687e-05
2.00456e-05
1.59039e-05
1.28242e-05
1.09408e-05
9.97633e-06
9.47628e-06
9.07205e-06
8.55665e-06
7.84445e-06
6.91937e-06
5.80191e-06
4.53317e-06
3.17194e-06
1.81419e-06
8.44272e-07
3.682e-05
3.35055e-05
2.92248e-05
2.44773e-05
1.97977e-05
1.57363e-05
1.27481e-05
1.09426e-05
1.00247e-05
9.54151e-06
9.13567e-06
8.61017e-06
7.88528e-06
6.94793e-06
5.82006e-06
4.54332e-06
3.17662e-06
1.81569e-06
8.44186e-07
3.64441e-05
3.31456e-05
2.88912e-05
2.41884e-05
1.95582e-05
1.55762e-05
1.26786e-05
1.09487e-05
1.0075e-05
9.60701e-06
9.19885e-06
8.66304e-06
7.9255e-06
6.97602e-06
5.83789e-06
4.55329e-06
3.18121e-06
1.81717e-06
8.44103e-07
3.60743e-05
3.2792e-05
2.85641e-05
2.39021e-05
1.93262e-05
1.54236e-05
1.26154e-05
1.09589e-05
1.0127e-05
9.67272e-06
9.26156e-06
8.71527e-06
7.96513e-06
7.00365e-06
5.85541e-06
4.56309e-06
3.18573e-06
1.81863e-06
8.44025e-07
3.57106e-05
3.24445e-05
2.8243e-05
2.362e-05
1.91014e-05
1.52784e-05
1.25584e-05
1.09729e-05
1.01805e-05
9.73857e-06
9.32379e-06
8.76687e-06
8.00417e-06
7.03084e-06
5.87263e-06
4.57271e-06
3.19017e-06
1.82007e-06
8.43951e-07
3.5353e-05
3.21029e-05
2.79271e-05
2.33428e-05
1.88833e-05
1.51404e-05
1.25074e-05
1.09906e-05
1.02355e-05
9.80451e-06
9.38555e-06
8.81783e-06
8.04264e-06
7.05759e-06
5.88957e-06
4.58218e-06
3.19454e-06
1.82149e-06
8.4388e-07
3.50012e-05
3.17675e-05
2.76186e-05
2.30711e-05
1.8672e-05
1.50094e-05
1.24621e-05
1.10117e-05
1.02918e-05
9.87051e-06
9.4468e-06
8.86817e-06
8.08056e-06
7.08391e-06
5.90622e-06
4.59148e-06
3.19884e-06
1.82289e-06
8.43813e-07
3.46551e-05
3.14366e-05
2.73044e-05
2.28048e-05
1.84672e-05
1.48853e-05
1.24225e-05
1.10361e-05
1.03493e-05
9.9365e-06
9.50756e-06
8.9179e-06
8.11792e-06
7.10982e-06
5.9226e-06
4.60063e-06
3.20308e-06
1.82428e-06
8.4375e-07
3.43145e-05
3.11103e-05
2.69957e-05
2.25435e-05
1.82689e-05
1.4768e-05
1.23883e-05
1.10636e-05
1.04079e-05
1.00025e-05
9.56781e-06
8.96702e-06
8.15476e-06
7.13532e-06
5.93871e-06
4.60963e-06
3.20724e-06
1.82565e-06
8.4369e-07
3.39791e-05
3.07882e-05
2.66919e-05
2.22862e-05
1.80769e-05
1.46572e-05
1.23592e-05
1.10941e-05
1.04675e-05
1.00683e-05
9.62755e-06
9.01555e-06
8.19106e-06
7.16043e-06
5.95456e-06
4.61848e-06
3.21135e-06
1.827e-06
8.43634e-07
3.36488e-05
3.0472e-05
2.6408e-05
2.20353e-05
1.78911e-05
1.45529e-05
1.23352e-05
1.11272e-05
1.0528e-05
1.01341e-05
9.68677e-06
9.06349e-06
8.22686e-06
7.18516e-06
5.97016e-06
4.6272e-06
3.21539e-06
1.82834e-06
8.43581e-07
3.33238e-05
3.01627e-05
2.61353e-05
2.17918e-05
1.77117e-05
1.44548e-05
1.2316e-05
1.1163e-05
1.05894e-05
1.01997e-05
9.74547e-06
9.11084e-06
8.26215e-06
7.2095e-06
5.98551e-06
4.63577e-06
3.21937e-06
1.82967e-06
8.43531e-07
3.30042e-05
2.98597e-05
2.58643e-05
2.15553e-05
1.75388e-05
1.43629e-05
1.23014e-05
1.12012e-05
1.06515e-05
1.02652e-05
9.80366e-06
9.15763e-06
8.29695e-06
7.23349e-06
6.00062e-06
4.64421e-06
3.2233e-06
1.83097e-06
8.43484e-07
3.269e-05
2.95622e-05
2.55954e-05
2.1325e-05
1.73723e-05
1.4277e-05
1.22912e-05
1.12418e-05
1.07142e-05
1.03305e-05
9.86132e-06
9.20385e-06
8.33127e-06
7.25711e-06
6.01549e-06
4.65252e-06
3.22716e-06
1.83227e-06
8.43441e-07
3.2381e-05
2.92699e-05
2.53296e-05
2.11007e-05
1.72121e-05
1.41971e-05
1.22854e-05
1.12845e-05
1.07776e-05
1.03955e-05
9.91847e-06
9.24952e-06
8.36512e-06
7.28038e-06
6.03014e-06
4.6607e-06
3.23097e-06
1.83355e-06
8.43401e-07
3.20769e-05
2.89819e-05
2.50679e-05
2.0882e-05
1.70583e-05
1.41229e-05
1.22836e-05
1.13292e-05
1.08414e-05
1.04603e-05
9.97509e-06
9.29463e-06
8.3985e-06
7.30332e-06
6.04457e-06
4.66876e-06
3.23473e-06
1.83482e-06
8.43364e-07
3.17782e-05
2.87004e-05
2.48105e-05
2.06689e-05
1.69105e-05
1.40544e-05
1.22857e-05
1.13758e-05
1.09058e-05
1.05248e-05
1.00312e-05
9.33921e-06
8.43143e-06
7.32592e-06
6.05878e-06
4.67669e-06
3.23844e-06
1.83607e-06
8.43329e-07
3.14835e-05
2.84132e-05
2.45581e-05
2.04613e-05
1.67689e-05
1.39913e-05
1.22916e-05
1.14242e-05
1.09705e-05
1.05891e-05
1.00868e-05
9.38326e-06
8.46392e-06
7.34819e-06
6.07277e-06
4.68451e-06
3.24209e-06
1.83731e-06
8.43298e-07
3.11922e-05
2.81277e-05
2.43081e-05
2.0259e-05
1.66333e-05
1.39337e-05
1.23012e-05
1.14743e-05
1.10356e-05
1.06531e-05
1.01418e-05
9.42679e-06
8.49597e-06
7.37014e-06
6.08656e-06
4.69222e-06
3.24569e-06
1.83854e-06
8.43269e-07
3.09048e-05
2.78529e-05
2.40622e-05
2.0062e-05
1.65035e-05
1.38813e-05
1.23142e-05
1.15259e-05
1.1101e-05
1.07167e-05
1.01964e-05
9.4698e-06
8.5276e-06
7.39179e-06
6.10015e-06
4.69981e-06
3.24925e-06
1.83976e-06
8.43243e-07
3.06231e-05
2.75972e-05
2.38224e-05
1.98702e-05
1.63795e-05
1.38339e-05
1.23305e-05
1.1579e-05
1.11666e-05
1.078e-05
1.02504e-05
9.5123e-06
8.5588e-06
7.41313e-06
6.11355e-06
4.7073e-06
3.25276e-06
1.84096e-06
8.4322e-07
3.0347e-05
2.73444e-05
2.35884e-05
1.96838e-05
1.62611e-05
1.37915e-05
1.23499e-05
1.16335e-05
1.12324e-05
1.0843e-05
1.03039e-05
9.55431e-06
8.5896e-06
7.43417e-06
6.12675e-06
4.71467e-06
3.25622e-06
1.84215e-06
8.43199e-07
3.00761e-05
2.7093e-05
2.336e-05
1.95028e-05
1.61484e-05
1.3754e-05
1.23724e-05
1.16892e-05
1.12984e-05
1.09056e-05
1.03569e-05
9.59582e-06
8.62e-06
7.45492e-06
6.13976e-06
4.72195e-06
3.25964e-06
1.84334e-06
8.43181e-07
2.98098e-05
2.68438e-05
2.31366e-05
1.93272e-05
1.60413e-05
1.3721e-05
1.23977e-05
1.17461e-05
1.13646e-05
1.09679e-05
1.04095e-05
9.63685e-06
8.65001e-06
7.47539e-06
6.15259e-06
4.72912e-06
3.26302e-06
1.84451e-06
8.43165e-07
2.95477e-05
2.65976e-05
2.29181e-05
1.9157e-05
1.59396e-05
1.36926e-05
1.24258e-05
1.18041e-05
1.14308e-05
1.10298e-05
1.04615e-05
9.67741e-06
8.67963e-06
7.49557e-06
6.16525e-06
4.7362e-06
3.26635e-06
1.84567e-06
8.43152e-07
2.92903e-05
2.63548e-05
2.27044e-05
1.89921e-05
1.58433e-05
1.36687e-05
1.24565e-05
1.18631e-05
1.1497e-05
1.10913e-05
1.0513e-05
9.71749e-06
8.70887e-06
7.51549e-06
6.17773e-06
4.74318e-06
3.26964e-06
1.84682e-06
8.43141e-07
2.90336e-05
2.61162e-05
2.24952e-05
1.88325e-05
1.57523e-05
1.36489e-05
1.24897e-05
1.1923e-05
1.15633e-05
1.11525e-05
1.0564e-05
9.75712e-06
8.73774e-06
7.53514e-06
6.19003e-06
4.75007e-06
3.27289e-06
1.84796e-06
8.43133e-07
2.87749e-05
2.58805e-05
2.22906e-05
1.8678e-05
1.56665e-05
1.36333e-05
1.25252e-05
1.19838e-05
1.16296e-05
1.12132e-05
1.06145e-05
9.79629e-06
8.76624e-06
7.55453e-06
6.20217e-06
4.75686e-06
3.2761e-06
1.84909e-06
8.43126e-07
2.85204e-05
2.56477e-05
2.20905e-05
1.85287e-05
1.55859e-05
1.36217e-05
1.2563e-05
1.20454e-05
1.16958e-05
1.12736e-05
1.06646e-05
9.83501e-06
8.79439e-06
7.57366e-06
6.21415e-06
4.76357e-06
3.27928e-06
1.85021e-06
8.43123e-07
2.82738e-05
2.54189e-05
2.18947e-05
1.83845e-05
1.55103e-05
1.3614e-05
1.2603e-05
1.21077e-05
1.1762e-05
1.13335e-05
1.07141e-05
9.87329e-06
8.82219e-06
7.59254e-06
6.22597e-06
4.77018e-06
3.28241e-06
1.85132e-06
8.43121e-07
2.80414e-05
2.51947e-05
2.17033e-05
1.82454e-05
1.54396e-05
1.361e-05
1.26449e-05
1.21707e-05
1.1828e-05
1.13931e-05
1.07632e-05
9.91114e-06
8.84965e-06
7.61118e-06
6.23763e-06
4.77672e-06
3.28551e-06
1.85242e-06
8.43121e-07
2.78123e-05
2.49754e-05
2.15163e-05
1.81112e-05
1.53738e-05
1.36096e-05
1.26888e-05
1.22343e-05
1.1894e-05
1.14522e-05
1.08118e-05
9.94857e-06
8.87677e-06
7.62958e-06
6.24914e-06
4.78316e-06
3.28858e-06
1.85352e-06
8.43124e-07
2.75852e-05
2.47605e-05
2.13339e-05
1.7982e-05
1.53127e-05
1.36127e-05
1.27346e-05
1.22985e-05
1.19598e-05
1.15109e-05
1.08599e-05
9.98557e-06
8.90355e-06
7.64774e-06
6.2605e-06
4.78953e-06
3.2916e-06
1.8546e-06
8.43128e-07
2.73604e-05
2.45499e-05
2.1156e-05
1.78577e-05
1.52563e-05
1.36192e-05
1.2782e-05
1.23632e-05
1.20255e-05
1.15692e-05
1.09076e-05
1.00222e-05
8.93002e-06
7.66568e-06
6.27172e-06
4.79582e-06
3.29461e-06
1.85568e-06
8.43135e-07