/*--------------------------------*- C++ -*----------------------------------*\
| =========                 |                                                 |
| \\      /  F ield         | OpenFOAM: The Open Source CFD Toolbox           |
|  \\    /   O peration     | Version:  2212                                  |
|   \\  /    A nd           | Website:  www.openfoam.com                      |
|    \\/     M anipulation  |                                                 |
\*---------------------------------------------------------------------------*/
FoamFile
{
    version     2.0;
    format      ascii;
    arch        "LSB;label=32;scalar=64";
    class       volScalarField;
    location    "10000";
    object      rho;
}
// * * * * * * * * * * * * * * * * * * * * * * * * * * * * * * * * * * * * * //

dimensions      [1 -3 0 0 0 0 0];

internalField   nonuniform List<scalar> 
200000
(
994.511
994.511
994.511
994.511
994.511
994.511
994.511
994.511
994.511
994.511
994.511
994.511
994.511
994.511
994.511
994.511
994.508
994.448
993.464
994.511
994.511
994.511
994.511
994.511
994.511
994.511
994.511
994.511
994.511
994.511
994.511
994.511
994.511
994.51
994.506
994.466
994.186
992.299
994.511
994.511
994.511
994.511
994.511
994.511
994.511
994.511
994.511
994.511
994.511
994.511
994.511
994.51
994.508
994.491
994.387
993.852
991.391
994.511
994.511
994.511
994.511
994.511
994.511
994.511
994.511
994.511
994.511
994.511
994.511
994.511
994.509
994.502
994.467
994.277
993.458
990.56
994.511
994.511
994.511
994.511
994.511
994.511
994.511
994.511
994.511
994.511
994.511
994.511
994.51
994.506
994.494
994.434
994.147
993.044
989.76
994.511
994.511
994.511
994.511
994.511
994.511
994.511
994.511
994.511
994.511
994.511
994.51
994.508
994.503
994.482
994.392
994.001
992.603
988.968
994.511
994.511
994.511
994.511
994.511
994.511
994.511
994.511
994.511
994.511
994.51
994.509
994.506
994.498
994.467
994.344
993.839
992.145
988.207
994.511
994.511
994.511
994.511
994.511
994.511
994.511
994.511
994.511
994.511
994.51
994.508
994.504
994.491
994.449
994.288
993.659
991.676
987.489
994.511
994.511
994.511
994.511
994.511
994.511
994.511
994.511
994.511
994.51
994.509
994.507
994.5
994.483
994.427
994.225
993.46
991.202
986.823
994.511
994.511
994.511
994.511
994.511
994.511
994.511
994.511
994.511
994.51
994.508
994.505
994.496
994.473
994.401
994.152
993.239
990.73
986.211
994.511
994.511
994.511
994.511
994.511
994.511
994.511
994.511
994.51
994.509
994.507
994.502
994.491
994.461
994.372
994.068
992.997
990.266
985.653
994.511
994.511
994.511
994.511
994.511
994.511
994.511
994.51
994.51
994.508
994.505
994.499
994.484
994.447
994.338
993.973
992.739
989.818
985.149
994.511
994.511
994.511
994.511
994.511
994.511
994.511
994.51
994.509
994.507
994.503
994.495
994.477
994.431
994.299
993.864
992.468
989.392
984.697
994.511
994.511
994.511
994.511
994.511
994.511
994.51
994.51
994.508
994.506
994.501
994.491
994.468
994.412
994.255
993.741
992.187
988.992
984.295
994.511
994.511
994.511
994.511
994.511
994.511
994.51
994.509
994.508
994.504
994.498
994.486
994.458
994.391
994.204
993.605
991.899
988.624
983.942
994.511
994.511
994.511
994.511
994.511
994.51
994.51
994.509
994.507
994.503
994.495
994.48
994.446
994.366
994.145
993.452
991.61
988.289
983.634
994.511
994.511
994.511
994.511
994.511
994.51
994.509
994.508
994.505
994.5
994.491
994.473
994.433
994.339
994.078
993.285
991.323
987.986
983.369
994.511
994.511
994.511
994.511
994.511
994.51
994.509
994.507
994.504
994.498
994.487
994.465
994.418
994.308
994.003
993.107
991.043
987.715
983.142
994.511
994.511
994.511
994.511
994.51
994.51
994.508
994.506
994.502
994.495
994.482
994.456
994.402
994.273
993.917
992.917
990.774
987.473
982.949
994.511
994.511
994.511
994.511
994.51
994.509
994.508
994.505
994.5
994.492
994.476
994.446
994.383
994.233
993.822
992.719
990.519
987.258
982.786
994.511
994.511
994.511
994.51
994.51
994.509
994.507
994.504
994.498
994.488
994.47
994.436
994.363
994.188
993.716
992.516
990.28
987.068
982.647
994.511
994.511
994.511
994.51
994.509
994.508
994.506
994.502
994.496
994.484
994.463
994.424
994.34
994.139
993.601
992.31
990.056
986.898
982.528
994.511
994.511
994.511
994.51
994.509
994.507
994.505
994.5
994.493
994.48
994.456
994.411
994.315
994.083
993.477
992.105
989.847
986.746
982.426
994.511
994.511
994.51
994.51
994.509
994.507
994.504
994.499
994.49
994.475
994.448
994.396
994.287
994.021
993.345
991.903
989.654
986.61
982.337
994.511
994.511
994.51
994.509
994.508
994.506
994.502
994.497
994.487
994.47
994.439
994.381
994.256
993.953
993.205
991.708
989.476
986.486
982.258
994.511
994.51
994.51
994.509
994.507
994.505
994.501
994.494
994.483
994.464
994.43
994.364
994.222
993.879
993.061
991.52
989.311
986.373
982.187
994.511
994.51
994.51
994.509
994.507
994.504
994.499
994.492
994.479
994.458
994.419
994.345
994.184
993.798
992.913
991.341
989.157
986.269
982.122
994.51
994.51
994.509
994.508
994.506
994.503
994.498
994.489
994.475
994.451
994.408
994.325
994.143
993.711
992.764
991.17
989.015
986.173
982.061
994.51
994.51
994.509
994.508
994.505
994.502
994.496
994.486
994.471
994.444
994.396
994.303
994.098
993.618
992.616
991.008
988.881
986.083
982.004
994.51
994.51
994.509
994.507
994.504
994.5
994.494
994.483
994.466
994.436
994.383
994.279
994.048
993.521
992.469
990.854
988.757
985.998
981.949
994.51
994.509
994.508
994.506
994.503
994.499
994.492
994.48
994.461
994.428
994.369
994.252
993.995
993.419
992.324
990.708
988.64
985.918
981.897
994.51
994.509
994.508
994.506
994.502
994.497
994.489
994.476
994.455
994.419
994.354
994.224
993.938
993.315
992.183
990.57
988.529
985.841
981.846
994.509
994.509
994.507
994.505
994.501
994.496
994.487
994.473
994.45
994.41
994.338
994.193
993.877
993.208
992.046
990.439
988.425
985.768
981.798
994.509
994.508
994.507
994.504
994.5
994.494
994.484
994.469
994.443
994.4
994.321
994.16
993.812
993.099
991.913
990.314
988.326
985.698
981.75
994.509
994.508
994.506
994.503
994.499
994.492
994.481
994.465
994.437
994.39
994.302
994.125
993.744
992.99
991.784
990.196
988.231
985.631
981.704
994.508
994.507
994.505
994.502
994.498
994.49
994.478
994.46
994.43
994.378
994.282
994.087
993.673
992.881
991.66
990.082
988.141
985.566
981.659
994.508
994.507
994.505
994.501
994.496
994.488
994.475
994.455
994.423
994.366
994.261
994.046
993.599
992.772
991.54
989.974
988.054
985.503
981.615
994.508
994.506
994.504
994.5
994.495
994.486
994.472
994.45
994.415
994.353
994.238
994.003
993.523
992.665
991.424
989.871
987.972
985.442
981.572
994.507
994.506
994.503
994.499
994.493
994.483
994.469
994.445
994.407
994.34
994.213
993.957
993.444
992.558
991.313
989.772
987.892
985.383
981.529
994.507
994.505
994.502
994.498
994.491
994.481
994.465
994.44
994.398
994.325
994.188
993.91
993.364
992.454
991.206
989.677
987.815
985.326
981.488
994.506
994.505
994.502
994.497
994.49
994.478
994.461
994.434
994.389
994.31
994.16
993.859
993.283
992.351
991.102
989.586
987.741
985.27
981.448
994.506
994.504
994.501
994.495
994.488
994.476
994.457
994.428
994.379
994.294
994.131
993.807
993.202
992.251
991.002
989.497
987.669
985.215
981.408
994.505
994.503
994.5
994.494
994.486
994.473
994.453
994.422
994.369
994.277
994.1
993.753
993.119
992.153
990.905
989.413
987.6
985.163
981.369
994.505
994.502
994.499
994.493
994.484
994.47
994.449
994.415
994.359
994.259
994.068
993.697
993.037
992.056
990.811
989.331
987.533
985.111
981.331
994.504
994.502
994.497
994.491
994.481
994.467
994.444
994.408
994.348
994.24
994.034
993.639
992.954
991.963
990.721
989.251
987.468
985.061
981.294
994.503
994.501
994.496
994.49
994.479
994.464
994.439
994.401
994.336
994.22
993.999
993.58
992.872
991.871
990.633
989.175
987.404
985.011
981.257
994.503
994.5
994.495
994.488
994.477
994.46
994.434
994.393
994.324
994.199
993.962
993.519
992.79
991.781
990.548
989.1
987.343
984.963
981.221
994.502
994.499
994.494
994.486
994.474
994.457
994.429
994.385
994.311
994.177
993.923
993.458
992.709
991.694
990.466
989.028
987.283
984.916
981.186
994.501
994.498
994.493
994.484
994.472
994.453
994.424
994.377
994.297
994.153
993.883
993.396
992.629
991.609
990.386
988.958
987.225
984.87
981.151
994.5
994.497
994.491
994.482
994.469
994.449
994.418
994.368
994.283
994.129
993.842
993.332
992.55
991.526
990.308
988.89
987.168
984.825
981.117
994.5
994.496
994.49
994.481
994.466
994.445
994.412
994.359
994.268
994.104
993.799
993.269
992.472
991.445
990.233
988.824
987.112
984.781
981.084
994.499
994.495
994.488
994.478
994.464
994.441
994.406
994.35
994.253
994.078
993.755
993.204
992.394
991.366
990.159
988.759
987.058
984.738
981.051
994.498
994.494
994.487
994.476
994.461
994.437
994.4
994.34
994.237
994.05
993.71
993.14
992.318
991.289
990.087
988.696
987.005
984.695
981.019
994.497
994.492
994.485
994.474
994.458
994.432
994.393
994.329
994.22
994.022
993.664
993.075
992.243
991.213
990.018
988.635
986.953
984.654
980.987
994.496
994.491
994.484
994.472
994.454
994.428
994.386
994.319
994.202
993.992
993.617
993.011
992.17
991.139
989.95
988.575
986.903
984.613
980.956
994.495
994.49
994.482
994.47
994.451
994.423
994.379
994.308
994.184
993.962
993.569
992.946
992.097
991.067
989.883
988.517
986.853
984.573
980.925
994.494
994.488
994.48
994.467
994.448
994.418
994.372
994.296
994.165
993.93
993.52
992.882
992.026
990.997
989.819
988.46
986.805
984.534
980.895
994.493
994.487
994.478
994.465
994.444
994.413
994.364
994.284
994.145
993.898
993.471
992.818
991.955
990.928
989.755
988.404
986.757
984.495
980.865
994.491
994.486
994.476
994.462
994.441
994.408
994.357
994.272
994.125
993.864
993.421
992.754
991.887
990.861
989.694
988.35
986.711
984.457
980.836
994.49
994.484
994.474
994.459
994.437
994.403
994.348
994.259
994.104
993.83
993.37
992.691
991.819
990.795
989.633
988.296
986.665
984.42
980.807
994.489
994.483
994.472
994.457
994.433
994.397
994.34
994.245
994.082
993.794
993.319
992.628
991.752
990.731
989.574
988.244
986.62
984.383
980.778
994.488
994.481
994.47
994.454
994.429
994.391
994.331
994.232
994.059
993.758
993.268
992.566
991.687
990.668
989.516
988.193
986.576
984.347
980.75
994.486
994.479
994.468
994.451
994.425
994.385
994.322
994.217
994.036
993.721
993.216
992.505
991.622
990.606
989.46
988.143
986.533
984.312
980.723
994.485
994.478
994.466
994.448
994.421
994.379
994.313
994.203
994.012
993.684
993.164
992.443
991.559
990.545
989.404
988.094
986.491
984.277
980.696
994.484
994.476
994.464
994.445
994.417
994.373
994.303
994.187
993.987
993.645
993.112
992.383
991.497
990.486
989.35
988.045
986.449
984.242
980.669
994.482
994.474
994.461
994.442
994.412
994.366
994.293
994.171
993.961
993.606
993.06
992.323
991.436
990.427
989.297
987.998
986.408
984.208
980.643
994.481
994.472
994.459
994.439
994.408
994.36
994.283
994.155
993.935
993.567
993.008
992.264
991.376
990.37
989.245
987.952
986.368
984.175
980.617
994.479
994.47
994.457
994.435
994.403
994.353
994.272
994.138
993.908
993.527
992.955
992.206
991.317
990.314
989.193
987.906
986.328
984.142
980.591
994.478
994.469
994.454
994.432
994.398
994.346
994.262
994.121
993.881
993.486
992.903
992.148
991.258
990.259
989.143
987.861
986.29
984.11
980.566
994.476
994.467
994.451
994.428
994.393
994.338
994.25
994.103
993.852
993.445
992.852
992.091
991.201
990.205
989.094
987.817
986.251
984.078
980.541
994.474
994.465
994.449
994.425
994.388
994.331
994.239
994.084
993.823
993.403
992.8
992.034
991.145
990.152
989.045
987.774
986.213
984.046
980.516
994.473
994.462
994.446
994.421
994.383
994.323
994.227
994.065
993.794
993.361
992.748
991.979
991.09
990.1
988.997
987.731
986.176
984.015
980.492
994.471
994.46
994.443
994.417
994.377
994.315
994.214
994.046
993.764
993.319
992.697
991.924
991.036
990.049
988.951
987.689
986.14
983.985
980.468
994.469
994.458
994.44
994.413
994.372
994.307
994.202
994.026
993.733
993.277
992.646
991.869
990.982
989.998
988.905
987.648
986.104
983.954
980.444
994.467
994.456
994.437
994.409
994.366
994.298
994.189
994.005
993.702
993.234
992.595
991.816
990.929
989.949
988.859
987.607
986.068
983.925
980.421
994.465
994.454
994.434
994.405
994.36
994.29
994.175
993.984
993.67
993.191
992.545
991.763
990.877
989.9
988.815
987.567
986.033
983.895
980.398
994.463
994.451
994.431
994.401
994.354
994.281
994.161
993.963
993.638
993.148
992.495
991.711
990.826
989.852
988.771
987.528
985.999
983.866
980.375
994.461
994.449
994.428
994.397
994.348
994.272
994.147
993.941
993.605
993.105
992.445
991.659
990.776
989.805
988.728
987.489
985.965
983.837
980.353
994.459
994.446
994.425
994.392
994.342
994.262
994.133
993.918
993.572
993.062
992.396
991.608
990.726
989.758
988.685
987.451
985.931
983.809
980.33
994.457
994.444
994.422
994.388
994.335
994.253
994.118
993.895
993.538
993.019
992.347
991.558
990.678
989.713
988.643
987.413
985.898
983.781
980.308
994.455
994.441
994.418
994.383
994.329
994.243
994.103
993.871
993.504
992.975
992.298
991.508
990.63
989.668
988.602
987.376
985.865
983.753
980.287
994.453
994.439
994.415
994.378
994.322
994.233
994.087
993.847
993.47
992.932
992.25
991.459
990.582
989.623
988.561
987.339
985.833
983.726
980.265
994.451
994.436
994.411
994.374
994.315
994.222
994.071
993.823
993.435
992.889
992.203
991.41
990.535
989.58
988.521
987.303
985.801
983.699
980.244
994.449
994.433
994.408
994.369
994.308
994.211
994.054
993.798
993.4
992.846
992.155
991.363
990.489
989.536
988.481
987.268
985.769
983.673
980.223
994.446
994.43
994.404
994.364
994.301
994.201
994.037
993.772
993.365
992.802
992.108
991.315
990.444
989.494
988.442
987.232
985.738
983.646
980.202
994.444
994.427
994.4
994.358
994.293
994.189
994.02
993.746
993.329
992.76
992.062
991.269
990.399
989.452
988.404
987.198
985.708
983.62
980.182
994.442
994.424
994.397
994.353
994.286
994.178
994.002
993.72
993.293
992.717
992.016
991.223
990.355
989.411
988.366
987.163
985.677
983.594
980.162
994.439
994.421
994.393
994.348
994.278
994.166
993.984
993.693
993.257
992.674
991.97
991.177
990.311
989.37
988.329
987.13
985.647
983.569
980.141
994.437
994.418
994.389
994.342
994.27
994.154
993.966
993.666
993.221
992.632
991.925
991.132
990.268
989.33
988.292
987.096
985.618
983.544
980.122
994.434
994.415
994.385
994.337
994.262
994.142
993.947
993.638
993.185
992.589
991.88
991.088
990.226
989.29
988.255
987.063
985.588
983.519
980.102
994.431
994.412
994.38
994.331
994.253
994.129
993.928
993.61
993.148
992.547
991.836
991.044
990.184
989.251
988.219
987.031
985.559
983.494
980.083
994.429
994.409
994.376
994.325
994.245
994.116
993.908
993.582
993.112
992.505
991.792
991
990.142
989.212
988.184
986.998
985.531
983.47
980.063
994.426
994.406
994.372
994.319
994.236
994.103
993.888
993.554
993.075
992.463
991.748
990.957
990.101
989.174
988.148
986.966
985.502
983.445
980.044
994.423
994.402
994.367
994.313
994.227
994.089
993.868
993.525
993.039
992.422
991.705
990.915
990.061
989.136
988.114
986.935
985.474
983.421
980.025
994.421
994.399
994.363
994.307
994.218
994.076
993.847
993.495
993.002
992.381
991.663
990.873
990.021
989.099
988.079
986.904
985.447
983.398
980.007
994.418
994.395
994.358
994.3
994.208
994.061
993.826
993.466
992.965
992.34
991.62
990.832
989.982
989.062
988.046
986.873
985.419
983.374
979.988
994.415
994.392
994.354
994.294
994.199
994.047
993.805
993.436
992.928
992.299
991.579
990.791
989.943
989.026
988.012
986.842
985.392
983.351
979.97
994.412
994.388
994.349
994.287
994.189
994.032
993.783
993.406
992.892
992.258
991.537
990.75
989.904
988.99
987.979
986.812
985.365
983.328
979.952
994.409
994.385
994.344
994.28
994.179
994.017
993.761
993.376
992.855
992.218
991.496
990.71
989.866
988.954
987.946
986.783
985.339
983.305
979.934
994.406
994.381
994.339
994.273
994.169
994.002
993.738
993.346
992.818
992.178
991.455
990.67
989.828
988.919
987.914
986.753
985.312
983.283
979.916
994.403
994.377
994.334
994.266
994.159
993.986
993.715
993.315
992.782
992.138
991.415
990.631
989.791
988.884
987.882
986.724
985.286
983.26
979.898
994.4
994.373
994.329
994.259
994.148
993.97
993.692
993.284
992.745
992.099
991.375
990.592
989.754
988.85
987.85
986.695
985.26
983.238
979.881
994.397
994.369
994.324
994.252
994.137
993.954
993.669
993.253
992.708
992.06
991.336
990.554
989.718
988.816
987.819
986.666
985.235
983.216
979.864
994.393
994.365
994.318
994.244
994.126
993.938
993.645
993.222
992.672
992.021
991.296
990.516
989.682
988.783
987.788
986.638
985.209
983.195
979.846
994.39
994.361
994.313
994.236
994.115
993.921
993.621
993.191
992.636
991.982
991.258
990.479
989.647
988.749
987.757
986.61
985.184
983.173
979.829
994.387
994.357
994.307
994.229
994.103
993.904
993.597
993.159
992.599
991.944
991.219
990.441
989.611
988.716
987.727
986.582
985.16
983.152
979.812
994.383
994.353
994.302
994.221
994.091
993.886
993.572
993.128
992.563
991.905
991.181
990.405
989.576
988.684
987.696
986.555
985.135
983.13
979.796
994.38
994.348
994.296
994.212
994.079
993.869
993.547
993.096
992.527
991.868
991.143
990.368
989.542
988.652
987.667
986.528
985.11
983.109
979.779
994.376
994.344
994.29
994.204
994.067
993.851
993.522
993.065
992.491
991.83
991.106
990.332
989.508
988.62
987.637
986.501
985.086
983.089
979.763
994.373
994.34
994.284
994.196
994.055
993.832
993.497
993.033
992.456
991.793
991.069
990.296
989.474
988.588
987.608
986.474
985.062
983.068
979.746
994.369
994.335
994.278
994.187
994.042
993.814
993.471
993.001
992.42
991.756
991.032
990.261
989.441
988.557
987.579
986.447
985.039
983.048
979.73
994.365
994.33
994.272
994.178
994.029
993.795
993.445
992.969
992.384
991.719
990.996
990.226
989.408
988.526
987.55
986.421
985.015
983.027
979.714
994.362
994.326
994.266
994.169
994.016
993.776
993.419
992.938
992.349
991.682
990.96
990.191
989.375
988.495
987.522
986.395
984.992
983.007
979.698
994.358
994.321
994.259
994.16
994.003
993.756
993.393
992.906
992.314
991.646
990.924
990.157
989.342
988.465
987.494
986.369
984.968
982.987
979.683
994.354
994.316
994.253
994.151
993.989
993.736
993.366
992.874
992.279
991.61
990.889
990.123
989.31
988.435
987.466
986.344
984.945
982.967
979.667
994.35
994.311
994.246
994.141
993.975
993.716
993.34
992.842
992.244
991.575
990.854
990.089
989.278
988.405
987.438
986.319
984.923
982.948
979.651
994.346
994.306
994.239
994.132
993.961
993.696
993.313
992.81
992.209
991.539
990.819
990.056
989.247
988.375
987.411
986.293
984.9
982.928
979.636
994.342
994.301
994.232
994.122
993.946
993.676
993.286
992.778
992.175
991.504
990.784
990.023
989.215
988.346
987.384
986.269
984.878
982.909
979.621
994.338
994.296
994.225
994.112
993.932
993.655
993.259
992.746
992.141
991.469
990.75
989.99
989.184
988.317
987.357
986.244
984.855
982.89
979.606
994.333
994.291
994.218
994.102
993.917
993.634
993.232
992.714
992.106
991.435
990.716
989.958
989.154
988.288
987.33
986.219
984.833
982.871
979.591
994.329
994.285
994.211
994.091
993.902
993.613
993.204
992.683
992.072
991.4
990.683
989.925
989.123
988.26
987.304
986.195
984.811
982.852
979.576
994.325
994.28
994.204
994.081
993.886
993.591
993.177
992.651
992.039
991.366
990.649
989.894
989.093
988.232
987.277
986.171
984.79
982.833
979.561
994.32
994.274
994.196
994.07
993.871
993.57
993.149
992.619
992.005
991.332
990.616
989.862
989.063
988.204
987.251
986.147
984.768
982.814
979.546
994.316
994.269
994.188
994.059
993.855
993.548
993.122
992.587
991.971
991.298
990.583
989.83
989.034
988.176
987.226
986.123
984.747
982.796
979.531
994.311
994.263
994.181
994.048
993.839
993.525
993.094
992.556
991.938
991.265
990.551
989.799
989.004
988.148
987.2
986.1
984.726
982.777
979.517
994.307
994.257
994.173
994.036
993.823
993.503
993.066
992.524
991.905
991.232
990.519
989.769
988.975
988.121
987.175
986.076
984.704
982.759
979.503
994.302
994.251
994.165
994.025
993.806
993.481
993.038
992.493
991.872
991.199
990.487
989.738
988.946
988.094
987.149
986.053
984.684
982.741
979.488
994.297
994.245
994.156
994.013
993.789
993.458
993.01
992.462
991.839
991.166
990.455
989.708
988.917
988.067
987.124
986.03
984.663
982.723
979.474
994.292
994.239
994.148
994.001
993.772
993.435
992.982
992.43
991.807
991.134
990.423
989.678
988.889
988.04
987.1
986.007
984.642
982.705
979.46
994.288
994.233
994.14
993.989
993.755
993.412
992.954
992.399
991.774
991.102
990.392
989.648
988.861
988.014
987.075
985.985
984.622
982.687
979.446
994.283
994.227
994.131
993.977
993.737
993.389
992.926
992.368
991.742
991.07
990.361
989.618
988.833
987.988
987.051
985.962
984.601
982.67
979.432
994.278
994.22
994.122
993.964
993.72
993.365
992.898
992.337
991.71
991.038
990.33
989.589
988.805
987.962
987.026
985.94
984.581
982.652
979.418
994.272
994.214
994.113
993.951
993.702
993.341
992.869
992.306
991.678
991.006
990.3
989.56
988.778
987.936
987.002
985.918
984.561
982.635
979.404
994.267
994.207
994.104
993.939
993.684
993.318
992.841
992.275
991.647
990.975
990.27
989.531
988.75
987.91
986.978
985.896
984.541
982.618
979.391
994.262
994.2
994.095
993.925
993.665
993.294
992.813
992.245
991.615
990.944
990.239
989.502
988.723
987.885
986.955
985.874
984.521
982.6
979.377
994.257
994.193
994.085
993.912
993.647
993.27
992.785
992.214
991.584
990.913
990.21
989.474
988.696
987.859
986.931
985.852
984.502
982.583
979.364
994.251
994.186
994.076
993.899
993.628
993.246
992.756
992.184
991.553
990.882
990.18
989.445
988.669
987.834
986.908
985.831
984.482
982.566
979.35
994.246
994.179
994.066
993.885
993.609
993.221
992.728
992.153
991.522
990.852
990.151
989.417
988.643
987.81
986.885
985.809
984.463
982.549
979.337
994.24
994.172
994.056
993.871
993.59
993.197
992.7
992.123
991.491
990.822
990.121
989.389
988.617
987.785
986.862
985.788
984.443
982.533
979.324
994.234
994.165
994.046
993.857
993.57
993.172
992.672
992.093
991.461
990.792
990.092
989.362
988.59
987.76
986.839
985.767
984.424
982.516
979.311
994.228
994.157
994.036
993.842
993.551
993.148
992.643
992.063
991.43
990.762
990.064
989.334
988.565
987.736
986.816
985.746
984.405
982.5
979.298
994.223
994.15
994.026
993.828
993.531
993.123
992.615
992.033
991.4
990.732
990.035
989.307
988.539
987.712
986.793
985.725
984.386
982.483
979.285
994.217
994.142
994.015
993.813
993.511
993.098
992.587
992.003
991.37
990.702
990.007
989.28
988.513
987.688
986.771
985.704
984.368
982.467
979.272
994.21
994.135
994.005
993.798
993.491
993.073
992.559
991.973
991.34
990.673
989.978
989.253
988.488
987.664
986.749
985.684
984.349
982.451
979.259
994.204
994.127
993.994
993.783
993.47
993.048
992.531
991.944
991.31
990.644
989.95
989.226
988.463
987.64
986.726
985.663
984.33
982.434
979.246
994.198
994.119
993.983
993.767
993.45
993.023
992.503
991.914
991.281
990.615
989.923
989.2
988.438
987.616
986.704
985.643
984.312
982.418
979.234
994.192
994.11
993.971
993.752
993.429
992.998
992.475
991.885
991.251
990.587
989.895
989.174
988.413
987.593
986.683
985.623
984.293
982.402
979.221
994.185
994.102
993.96
993.736
993.408
992.973
992.447
991.856
991.222
990.558
989.867
989.148
988.388
987.57
986.661
985.602
984.275
982.386
979.209
994.179
994.094
993.949
993.72
993.388
992.948
992.419
991.827
991.193
990.53
989.84
989.122
988.363
987.547
986.639
985.582
984.257
982.371
979.196
994.172
994.085
993.937
993.704
993.366
992.922
992.391
991.798
991.164
990.501
989.813
989.096
988.339
987.524
986.618
985.563
984.239
982.355
979.184
994.165
994.076
993.925
993.688
993.345
992.897
992.363
991.769
991.135
990.473
989.786
989.07
988.315
987.501
986.597
985.543
984.221
982.339
979.171
994.158
994.068
993.913
993.671
993.324
992.872
992.335
991.74
991.107
990.446
989.76
989.045
988.291
987.478
986.575
985.523
984.203
982.324
979.159
994.151
994.059
993.901
993.654
993.302
992.846
992.308
991.712
991.078
990.418
989.733
989.019
988.267
987.456
986.554
985.504
984.185
982.308
979.147
994.144
994.05
993.888
993.637
993.281
992.821
992.28
991.683
991.05
990.39
989.707
988.994
988.243
987.433
986.533
985.484
984.168
982.293
979.135
994.137
994.04
993.876
993.62
993.259
992.795
992.252
991.655
991.022
990.363
989.68
988.969
988.219
987.411
986.513
985.465
984.15
982.278
979.123
994.13
994.031
993.863
993.603
993.237
992.77
992.225
991.627
990.994
990.336
989.654
988.945
988.196
987.389
986.492
985.446
984.133
982.262
979.111
994.123
994.021
993.85
993.586
993.215
992.744
992.197
991.599
990.966
990.309
989.628
988.92
988.172
987.367
986.471
985.427
984.115
982.247
979.099
994.115
994.012
993.837
993.568
993.193
992.719
992.17
991.571
990.939
990.282
989.603
988.895
988.149
987.345
986.451
985.408
984.098
982.232
979.087
994.107
994.002
993.823
993.55
993.17
992.693
992.143
991.543
990.911
990.255
989.577
988.871
988.126
987.323
986.43
985.389
984.081
982.217
979.075
994.1
993.992
993.81
993.532
993.148
992.668
992.115
991.515
990.884
990.229
989.552
988.847
988.103
987.302
986.41
985.37
984.064
982.202
979.063
994.092
993.982
993.796
993.514
993.125
992.642
992.088
991.488
990.857
990.203
989.526
988.823
988.08
987.28
986.39
985.351
984.047
982.188
979.052
994.084
993.972
993.782
993.496
993.103
992.616
992.061
991.46
990.83
990.176
989.501
988.799
988.058
987.259
986.37
985.333
984.03
982.173
979.04
994.076
993.961
993.768
993.477
993.08
992.591
992.034
991.433
990.803
990.15
989.476
988.775
988.035
987.238
986.35
985.314
984.013
982.158
979.028
994.067
993.951
993.754
993.459
993.057
992.565
992.007
991.406
990.776
990.124
989.451
988.751
988.013
987.217
986.33
985.296
983.996
982.143
979.017
994.059
993.94
993.74
993.44
993.035
992.54
991.98
991.379
990.749
990.099
989.427
988.728
987.991
987.196
986.311
985.278
983.98
982.129
979.005
994.051
993.929
993.725
993.421
993.012
992.514
991.953
991.352
990.723
990.073
989.402
988.704
987.968
987.175
986.291
985.26
983.963
982.114
978.994
994.042
993.918
993.71
993.402
992.989
992.489
991.927
991.325
990.696
990.047
989.378
988.681
987.946
987.154
986.272
985.241
983.947
982.1
978.983
994.033
993.907
993.695
993.382
992.966
992.463
991.9
991.298
990.67
990.022
989.353
988.658
987.924
987.133
986.252
985.223
983.93
982.086
978.971
994.024
993.895
993.68
993.363
992.943
992.438
991.873
991.271
990.644
989.997
989.329
988.635
987.903
987.113
986.233
985.206
983.914
982.071
978.96
994.015
993.884
993.665
993.343
992.919
992.412
991.847
991.245
990.618
989.972
989.305
988.612
987.881
987.092
986.214
985.188
983.898
982.057
978.949
994.006
993.872
993.65
993.324
992.896
992.387
991.821
991.218
990.592
989.947
989.281
988.589
987.859
987.072
986.195
985.17
983.881
982.043
978.938
993.997
993.86
993.634
993.304
992.873
992.361
991.794
991.192
990.566
989.922
989.258
988.567
987.838
987.052
986.176
985.152
983.865
982.029
978.926
993.988
993.848
993.618
993.284
992.85
992.336
991.768
991.166
990.541
989.897
989.234
988.544
987.817
987.031
986.157
985.135
983.849
982.015
978.915
993.978
993.836
993.602
993.264
992.826
992.31
991.742
991.14
990.515
989.873
989.21
988.522
987.795
987.011
986.138
985.117
983.833
982.001
978.904
993.968
993.824
993.586
993.244
992.803
992.285
991.716
991.114
990.49
989.848
989.187
988.5
987.774
986.991
986.119
985.1
983.817
981.987
978.893
993.959
993.811
993.57
993.223
992.779
992.26
991.69
991.088
990.465
989.824
989.164
988.477
987.753
986.972
986.1
985.082
983.801
981.973
978.883
993.949
993.798
993.553
993.203
992.756
992.234
991.664
991.062
990.44
989.8
989.141
988.455
987.732
986.952
986.082
985.065
983.786
981.959
978.872
993.938
993.785
993.537
993.182
992.732
992.209
991.638
991.037
990.415
989.776
989.118
988.433
987.711
986.932
986.063
985.048
983.77
981.946
978.861
993.928
993.772
993.52
993.162
992.709
992.184
991.612
991.011
990.39
989.752
989.095
988.412
987.691
986.913
986.045
985.031
983.754
981.932
978.85
993.918
993.759
993.503
993.141
992.685
992.159
991.587
990.986
990.365
989.728
989.072
988.39
987.67
986.893
986.027
985.014
983.739
981.918
978.839
993.907
993.746
993.486
993.12
992.661
992.134
991.561
990.96
990.341
989.704
989.049
988.368
987.65
986.874
986.008
984.997
983.723
981.905
978.829
993.896
993.732
993.468
993.099
992.638
992.109
991.536
990.935
990.316
989.681
989.027
988.347
987.629
986.854
985.99
984.98
983.708
981.891
978.818
993.885
993.719
993.451
993.078
992.614
992.084
991.51
990.91
990.292
989.657
989.004
988.325
987.609
986.835
985.972
984.963
983.692
981.878
978.807
993.874
993.705
993.433
993.057
992.59
992.059
991.485
990.885
990.267
989.634
988.982
988.304
987.589
986.816
985.954
984.946
983.677
981.864
978.797
993.863
993.691
993.416
993.036
992.567
992.034
991.46
990.86
990.243
989.611
988.959
988.283
987.568
986.797
985.936
984.93
983.662
981.851
978.786
993.852
993.676
993.398
993.014
992.543
992.009
991.434
990.835
990.219
989.587
988.937
988.262
987.548
986.778
985.918
984.913
983.646
981.838
978.776
993.84
993.662
993.38
992.993
992.519
991.984
991.409
990.811
990.195
989.564
988.915
988.241
987.528
986.759
985.901
984.896
983.631
981.824
978.765
993.829
993.647
993.361
992.972
992.495
991.959
991.384
990.786
990.171
989.541
988.893
988.22
987.509
986.74
985.883
984.88
983.616
981.811
978.755
993.817
993.633
993.343
992.95
992.472
991.934
991.36
990.762
990.148
989.519
988.871
988.199
987.489
986.722
985.865
984.863
983.601
981.798
978.744
993.805
993.618
993.325
992.928
992.448
991.91
991.335
990.737
990.124
989.496
988.85
988.178
987.469
986.703
985.848
984.847
983.586
981.785
978.734
993.792
993.603
993.306
992.907
992.424
991.885
991.31
990.713
990.1
989.473
988.828
988.158
987.449
986.684
985.83
984.831
983.571
981.772
978.724
993.78
993.587
993.287
992.885
992.4
991.86
991.285
990.689
990.077
989.451
988.806
988.137
987.43
986.666
985.813
984.815
983.556
981.759
978.713
993.767
993.572
993.268
992.863
992.377
991.836
991.261
990.665
990.054
989.428
988.785
988.117
987.411
986.647
985.796
984.798
983.542
981.746
978.703
993.755
993.556
993.249
992.841
992.353
991.811
991.236
990.641
990.03
989.406
988.764
988.096
987.391
986.629
985.778
984.782
983.527
981.733
978.693
993.742
993.541
993.23
992.819