/*--------------------------------*- C++ -*----------------------------------*\
| =========                 |                                                 |
| \\      /  F ield         | OpenFOAM: The Open Source CFD Toolbox           |
|  \\    /   O peration     | Version:  2212                                  |
|   \\  /    A nd           | Website:  www.openfoam.com                      |
|    \\/     M anipulation  |                                                 |
\*---------------------------------------------------------------------------*/
FoamFile
{
    version     2.0;
    format      ascii;
    arch        "LSB;label=32;scalar=64";
    class       volScalarField;
    location    "10000";
    object      T;
}
// * * * * * * * * * * * * * * * * * * * * * * * * * * * * * * * * * * * * * //

dimensions      [0 0 0 1 0 0 0];

internalField   nonuniform List<scalar> 
200000
(
300
300
300
300
300
300
300
300
300
300
300
300
300
300
300
300.002
300.014
300.242
303.982
300
300
300
300
300
300
300
300
300
300
300
300
300
300.001
300.004
300.023
300.174
301.242
308.371
300
300
300
300
300
300
300
300
300
300
300
300.001
300.001
300.004
300.015
300.077
300.475
302.514
311.756
300
300
300
300
300
300
300
300
300
300
300.001
300.001
300.003
300.01
300.035
300.169
300.897
304.006
314.83
300
300
300
300
300
300
300
300
300
300.001
300.001
300.003
300.007
300.019
300.067
300.297
301.391
305.569
317.767
300
300
300
300
300
300
300
300
300.001
300.001
300.002
300.005
300.012
300.033
300.112
300.456
301.947
307.228
320.654
300
300
300
300
300
300
300
300.001
300.001
300.002
300.004
300.008
300.019
300.052
300.169
300.641
302.561
308.947
323.409
300
300
300
300
300
300
300.001
300.001
300.002
300.003
300.006
300.012
300.029
300.077
300.239
300.853
303.244
310.697
325.989
300
300
300
300
300
300
300.001
300.001
300.002
300.004
300.009
300.018
300.042
300.109
300.323
301.094
303.997
312.458
328.369
300
300
300
300
300
300.001
300.001
300.002
300.003
300.006
300.013
300.026
300.059
300.147
300.42
301.372
304.833
314.203
330.542
300
300
300
300
300.001
300.001
300.002
300.003
300.005
300.009
300.017
300.036
300.079
300.193
300.532
301.69
305.746
315.911
332.511
300
300
300
300
300.001
300.001
300.002
300.004
300.007
300.012
300.023
300.048
300.103
300.247
300.662
302.053
306.718
317.555
334.284
300
300
300
300.001
300.001
300.002
300.003
300.005
300.009
300.016
300.031
300.062
300.132
300.309
300.81
302.467
307.737
319.113
335.866
300
300
300
300.001
300.001
300.002
300.004
300.007
300.012
300.021
300.04
300.079
300.166
300.38
300.98
302.932
308.79
320.566
337.266
300
300
300.001
300.001
300.002
300.003
300.005
300.008
300.015
300.027
300.051
300.099
300.205
300.461
301.175
303.451
309.864
321.901
338.493
300
300.001
300.001
300.001
300.002
300.004
300.006
300.011
300.019
300.034
300.063
300.122
300.249
300.554
301.398
304.029
310.942
323.113
339.557
300
300.001
300.001
300.002
300.003
300.005
300.008
300.014
300.024
300.042
300.078
300.149
300.3
300.659
301.653
304.659
312.007
324.204
340.472
300.001
300.001
300.001
300.002
300.004
300.006
300.01
300.017
300.029
300.052
300.094
300.178
300.356
300.778
301.94
305.334
313.044
325.179
341.253
300.001
300.001
300.002
300.003
300.004
300.007
300.012
300.021
300.036
300.063
300.113
300.212
300.419
300.912
302.264
306.048
314.039
326.046
341.917
300.001
300.001
300.002
300.003
300.005
300.009
300.015
300.025
300.043
300.075
300.134
300.249
300.489
301.063
302.627
306.793
314.98
326.815
342.479
300.001
300.002
300.003
300.004
300.007
300.011
300.018
300.03
300.051
300.089
300.158
300.29
300.568
301.232
303.027
307.558
315.862
327.496
342.955
300.001
300.002
300.003
300.005
300.008
300.013
300.021
300.036
300.061
300.104
300.183
300.335
300.655
301.422
303.464
308.33
316.685
328.101
343.361
300.002
300.002
300.004
300.006
300.009
300.015
300.025
300.042
300.071
300.121
300.212
300.385
300.751
301.634
303.934
309.097
317.448
328.641
343.709
300.002
300.003
300.004
300.007
300.011
300.018
300.03
300.049
300.082
300.14
300.242
300.44
300.858
301.869
304.435
309.848
318.154
329.126
344.013
300.002
300.003
300.005
300.008
300.013
300.021
300.035
300.057
300.095
300.16
300.276
300.499
300.976
302.128
304.962
310.576
318.806
329.566
344.283
300.003
300.004
300.006
300.01
300.015
300.025
300.04
300.066
300.108
300.181
300.312
300.564
301.106
302.411
305.506
311.275
319.409
329.966
344.526
300.003
300.005
300.007
300.011
300.018
300.029
300.046
300.075
300.123
300.205
300.352
300.635
301.25
302.719
306.063
311.942
319.967
330.335
344.749
300.004
300.006
300.008
300.013
300.021
300.033
300.053
300.085
300.139
300.23
300.394
300.713
301.407
303.049
306.623
312.576
320.486
330.676
344.956
300.005
300.006
300.01
300.015
300.024
300.038
300.06
300.096
300.156
300.258
300.44
300.797
301.579
303.399
307.182
313.177
320.969
330.995
345.151
300.005
300.007
300.011
300.017
300.027
300.043
300.068
300.108
300.174
300.287
300.49
300.889
301.766
303.768
307.734
313.746
321.421
331.295
345.337
300.006
300.009
300.013
300.02
300.031
300.048
300.076
300.121
300.194
300.318
300.543
300.989
301.968
304.153
308.276
314.284
321.845
331.579
345.515
300.007
300.01
300.014
300.022
300.035
300.054
300.085
300.134
300.214
300.351
300.6
301.097
302.185
304.548
308.804
314.794
322.245
331.849
345.686
300.008
300.011
300.016
300.025
300.039
300.06
300.094
300.148
300.237
300.387
300.662
301.214
302.417
304.953
309.317
315.277
322.623
332.107
345.852
300.009
300.013
300.018
300.028
300.043
300.067
300.104
300.163
300.26
300.425
300.728
301.34
302.663
305.362
309.814
315.735
322.981
332.354
346.013
300.01
300.014
300.021
300.031
300.048
300.074
300.115
300.179
300.285
300.466
300.8
301.476
302.921
305.774
310.294
316.171
323.322
332.591
346.17
300.012
300.016
300.023
300.035
300.053
300.082
300.126
300.196
300.311
300.509
300.876
301.62
303.192
306.185
310.756
316.586
323.648
332.82
346.323
300.013
300.018
300.026
300.039
300.059
300.09
300.138
300.214
300.339
300.555
300.957
301.775
303.472
306.593
311.202
316.982
323.959
333.041
346.473
300.014
300.02
300.029
300.043
300.065
300.098
300.15
300.233
300.369
300.604
301.045
301.939
303.761
306.998
311.631
317.361
324.257
333.255
346.619
300.016
300.022
300.032
300.047
300.071
300.107
300.164
300.253
300.4
300.656
301.137
302.112
304.058
307.397
312.045
317.724
324.544
333.463
346.762
300.018
300.024
300.035
300.051
300.077
300.117
300.178
300.274
300.433
300.711
301.236
302.294
304.36
307.789
312.444
318.071
324.82
333.664
346.902
300.02
300.027
300.038
300.056
300.084
300.126
300.192
300.296
300.468
300.769
301.341
302.484
304.666
308.173
312.828
318.406
325.086
333.86
347.039
300.022
300.029
300.042
300.061
300.091
300.137
300.207
300.319
300.504
300.831
301.451
302.683
304.975
308.55
313.198
318.727
325.343
334.05
347.173
300.024
300.032
300.045
300.066
300.099
300.148
300.223
300.343
300.543
300.896
301.568
302.889
305.286
308.918
313.556
319.037
325.592
334.236
347.305
300.026
300.035
300.049
300.072
300.106
300.159
300.24
300.369
300.583
300.965
301.691
303.101
305.598
309.277
313.902
319.336
325.833
334.417
347.433
300.028
300.038
300.053
300.078
300.115
300.171
300.257
300.395
300.626
301.037
301.82
303.32
305.908
309.627
314.236
319.625
326.066
334.593
347.56
300.031
300.041
300.058
300.084
300.123
300.183
300.276
300.423
300.671
301.113
301.955
303.544
306.218
309.969
314.56
319.904
326.293
334.765
347.684
300.034
300.044
300.062
300.09
300.132
300.196
300.295
300.452
300.718
301.194
302.095
303.773
306.525
310.303
314.873
320.174
326.513
334.934
347.805
300.036
300.048
300.067
300.097
300.142
300.21
300.315
300.483
300.767
301.278
302.242
304.006
306.83
310.628
315.177
320.437
326.727
335.098
347.925
300.039
300.052
300.072
300.104
300.151
300.224
300.335
300.515
300.818
301.366
302.393
304.243
307.131
310.945
315.471
320.691
326.936
335.259
348.042
300.042
300.056
300.077
300.111
300.161
300.238
300.357
300.548
300.872
301.458
302.55
304.482
307.429
311.254
315.757
320.938
327.139
335.417
348.157
300.046
300.06
300.083
300.118
300.172
300.253
300.379
300.582
300.929
301.555
302.712
304.723
307.723
311.555
316.035
321.179
327.337
335.571
348.27
300.049
300.064
300.088
300.126
300.183
300.269
300.402
300.618
300.988
301.655
302.879
304.965
308.012
311.849
316.305
321.413
327.531
335.722
348.381
300.053
300.068
300.094
300.134
300.194
300.285
300.426
300.656
301.049
301.759
303.05
305.208
308.297
312.136
316.568
321.64
327.72
335.87
348.49
300.056
300.073
300.1
300.142
300.206
300.302
300.452
300.695
301.113
301.867
303.225
305.452
308.578
312.416
316.824
321.862
327.904
336.015
348.597
300.06
300.078
300.107
300.151
300.218
300.319
300.478
300.736
301.18
301.98
303.403
305.695
308.854
312.689
317.073
322.078
328.084
336.158
348.702
300.064
300.083
300.113
300.16
300.23
300.337
300.505
300.778
301.25
302.096
303.585
305.938
309.125
312.955
317.316
322.29
328.261
336.297
348.806
300.068
300.088
300.12
300.169
300.243
300.356
300.533
300.822
301.322
302.216
303.77
306.18
309.392
313.216
317.553
322.496
328.433
336.434
348.908
300.072
300.093
300.127
300.179
300.257
300.375
300.562
300.868
301.397
302.339
303.958
306.421
309.654
313.47
317.784
322.697
328.603
336.569
349.008
300.077
300.099
300.134
300.189
300.27
300.395
300.592
300.915
301.475
302.467
304.147
306.661
309.911
313.719
318.01
322.894
328.768
336.701
349.106
300.081
300.104
300.142
300.199
300.285
300.416
300.623
300.964
301.555
302.597
304.339
306.898
310.164
313.962
318.231
323.087
328.93
336.831
349.203
300.086
300.11
300.149
300.209
300.299
300.437
300.655
301.015
301.639
302.731
304.532
307.134
310.412
314.201
318.447
323.275
329.09
336.959
349.299
300.091
300.116
300.157
300.22
300.314
300.459
300.688
301.068
301.725
302.868
304.726
307.368
310.656
314.433
318.658
323.46
329.246
337.085
349.393
300.096
300.122
300.165
300.231
300.33
300.482
300.723
301.122
301.814
303.008
304.922
307.599
310.896
314.662
318.864
323.641
329.399
337.208
349.486
300.101
300.129
300.174
300.242
300.346
300.505
300.758
301.179
301.905
303.151
305.118
307.828
311.131
314.885
319.066
323.818
329.55
337.33
349.577
300.107
300.136
300.183
300.254
300.363
300.529
300.795
301.237
302
303.296
305.314
308.055
311.362
315.104
319.264
323.992
329.697
337.449
349.667
300.112
300.142
300.191
300.266
300.38
300.554
300.833
301.298
302.097
303.444
305.511
308.279
311.59
315.318
319.458
324.162
329.843
337.567
349.755
300.118
300.149
300.201
300.279
300.397
300.58
300.872
301.36
302.197
303.594
305.707
308.5
311.813
315.528
319.649
324.329
329.985
337.683
349.843
300.124
300.157
300.21
300.291
300.415
300.606
300.912
301.424
302.299
303.746
305.904
308.719
312.032
315.735
319.835
324.493
330.126
337.797
349.929
300.13
300.164
300.22
300.305
300.434
300.633
300.954
301.49
302.404
303.9
306.1
308.935
312.247
315.937
320.018
324.655
330.264
337.91
350.014
300.136
300.172
300.23
300.318
300.453
300.661
300.997
301.559
302.511
304.056
306.295
309.148
312.459
316.136
320.198
324.813
330.399
338.021
350.098
300.142
300.179
300.24
300.332
300.472
300.69
301.041
301.629
302.621
304.213
306.49
309.359
312.668
316.33
320.374
324.969
330.533
338.13
350.18
300.149
300.187
300.25
300.346
300.492
300.72
301.087
301.701
302.733
304.371
306.684
309.567
312.872
316.522
320.548
325.122
330.664
338.238
350.262
300.156
300.196
300.261
300.361
300.513
300.75
301.134
301.775
302.848
304.531
306.876
309.772
313.074
316.71
320.718
325.272
330.794
338.344
350.342
300.162
300.204
300.272
300.375
300.534
300.781
301.182
301.851
302.964
304.691
307.068
309.975
313.272
316.895
320.885
325.42
330.921
338.449
350.421
300.169
300.213
300.283
300.391
300.556
300.813
301.232
301.929
303.083
304.853
307.258
310.175
313.467
317.076
321.05
325.566
331.047
338.552
350.5
300.177
300.221
300.294
300.406
300.578
300.847
301.283
302.01
303.203
305.015
307.448
310.372
313.659
317.255
321.211
325.709
331.171
338.654
350.577
300.184
300.23
300.306
300.422
300.601
300.88
301.335
302.092
303.326
305.177
307.635
310.567
313.847
317.431
321.371
325.85
331.293
338.755
350.654
300.192
300.24
300.318
300.439
300.624
300.915
301.389
302.176
303.45
305.34
307.822
310.759
314.033
317.603
321.527
325.989
331.413
338.854
350.729
300.199
300.249
300.33
300.456
300.648
300.951
301.445
302.262
303.576
305.503
308.007
310.949
314.216
317.773
321.681
326.126
331.532
338.952
350.803
300.207
300.259
300.343
300.473
300.673
300.988
301.501
302.35
303.703
305.666
308.19
311.136
314.396
317.941
321.833
326.261
331.649
339.049
350.877
300.215
300.269
300.356
300.49
300.698
301.026
301.56
302.439
303.832
305.829
308.372
311.321
314.574
318.105
321.983
326.394
331.764
339.144
350.95
300.223
300.279
300.369
300.508
300.724
301.064
301.619
302.531
303.962
305.992
308.552
311.504
314.749
318.268
322.13
326.525
331.878
339.239
351.022
300.232
300.289
300.382
300.527
300.75
301.104
301.681
302.624
304.093
306.155
308.731
311.684
314.921
318.427
322.275
326.655
331.991
339.332
351.093
300.24
300.299
300.396
300.546
300.777
301.145
301.743
302.719
304.226
306.318
308.908
311.861
315.091
318.585
322.418
326.782
332.102
339.425
351.163
300.249
300.31
300.41
300.565
300.805
301.186
301.808
302.816
304.359
306.48
309.083
312.037
315.258
318.74
322.559
326.908
332.212
339.516
351.233
300.258
300.321
300.424
300.584
300.833
301.229
301.873
302.914
304.494
306.641
309.257
312.21
315.423
318.893
322.698
327.032
332.32
339.606
351.301
300.267
300.332
300.439
300.605
300.862
301.273
301.941
303.014
304.629
306.802
309.429
312.381
315.586
319.043
322.835
327.154
332.427
339.695
351.369
300.277
300.344
300.454
300.625
300.892
301.318
302.009
303.116
304.765
306.963
309.599
312.55
315.746
319.192
322.97
327.275
332.532
339.783
351.436
300.286
300.355
300.469
300.646
300.923
301.364
302.079
303.219
304.901
307.122
309.768
312.716
315.905
319.339
323.103
327.395
332.637
339.87
351.503
300.296
300.367
300.485
300.668
300.954
301.411
302.151
303.323
305.038
307.281
309.935
312.881
316.061
319.483
323.235
327.513
332.74
339.956
351.568
300.306
300.379
300.501
300.69
300.986
301.459
302.224
303.429
305.176
307.44
310.1
313.044
316.215
319.626
323.365
327.629
332.842
340.041
351.634
300.316
300.392
300.517
300.712
301.018
301.508
302.299
303.536
305.314
307.597
310.264
313.204
316.367
319.767
323.493
327.744
332.943
340.126
351.698
300.326
300.404
300.533
300.735
301.052
301.558
302.375
303.644
305.452
307.753
310.426
313.363
316.517
319.906
323.62
327.858
333.042
340.209
351.762
300.336
300.417
300.55
300.758
301.086
301.61
302.452
303.754
305.59
307.909
310.587
313.52
316.665
320.043
323.745
327.97
333.141
340.292
351.825
300.347
300.43
300.567
300.782
301.121
301.662
302.531
303.864
305.729
308.064
310.745
313.675
316.812
320.179
323.869
328.081
333.238
340.373
351.887
300.358
300.443
300.585
300.807
301.156
301.716
302.611
303.976
305.867
308.217
310.903
313.828
316.956
320.313
323.991
328.191
333.335
340.454
351.949
300.369
300.457
300.602
300.831
301.193
301.771
302.692
304.088
306.006
308.37
311.059
313.979
317.099
320.445
324.111
328.299
333.43
340.534
352.01
300.38
300.471
300.621
300.857
301.23
301.827
302.775
304.202
306.144
308.522
311.213
314.129
317.24
320.575
324.231
328.407
333.525
340.614
352.071
300.391
300.485
300.639
300.883
301.268
301.884
302.859
304.316
306.283
308.673
311.365
314.277
317.38
320.704
324.349
328.513
333.618
340.692
352.131
300.403
300.499
300.658
300.909
301.307
301.942
302.945
304.431
306.421
308.822
311.517
314.423
317.517
320.832
324.465
328.618
333.711
340.77
352.19
300.415
300.513
300.677
300.936
301.346
302.002
303.031
304.547
306.559
308.971
311.666
314.568
317.653
320.958
324.58
328.722
333.802
340.847
352.249
300.427
300.528
300.697
300.964
301.387
302.062
303.119
304.663
306.696
309.119
311.814
314.711
317.788
321.083
324.694
328.824
333.893
340.923
352.307
300.439
300.543
300.717
300.992
301.428
302.124
303.208
304.78
306.834
309.265
311.961
314.852
317.921
321.206
324.807
328.926
333.983
340.999
352.365
300.451
300.559
300.737
301.021
301.47
302.187
303.298
304.898
306.971
309.411
312.107
314.992
318.053
321.328
324.919
329.027
334.071
341.074
352.422
300.464
300.574
300.758
301.05
301.513
302.251
303.389
305.016
307.107
309.555
312.25
315.13
318.183
321.448
325.029
329.126
334.159
341.148
352.479
300.477
300.59
300.779
301.08
301.557
302.316
303.482
305.135
307.243
309.698
312.393
315.267
318.311
321.568
325.138
329.225
334.247
341.221
352.535
300.49
300.606
300.801
301.11
301.602
302.382
303.575
305.253
307.379
309.841
312.534
315.402
318.439
321.686
325.246
329.323
334.333
341.294
352.591
300.503
300.623
300.823
301.141
301.648
302.449
303.669
305.373
307.514
309.982
312.674
315.536
318.565
321.802
325.353
329.419
334.419
341.366
352.646
300.516
300.639
300.845
301.173
301.694
302.518
303.764
305.492
307.649
310.122
312.812
315.669
318.689
321.918
325.459
329.515
334.503
341.438
352.701
300.53
300.656
300.868
301.205
301.742
302.587
303.86
305.612
307.783
310.261
312.95
315.8
318.812
322.032
325.564
329.61
334.587
341.509
352.756
300.544
300.674
300.891
301.238
301.79
302.658
303.957
305.731
307.917
310.399
313.085
315.93
318.934
322.145
325.668
329.704
334.671
341.579
352.809
300.558
300.691
300.914
301.271
301.839
302.73
304.055
305.851
308.049
310.536
313.22
316.059
319.055
322.257
325.77
329.797
334.753
341.649
352.863
300.573
300.709
300.938
301.305
301.889
302.803
304.154
305.971
308.182
310.672
313.353
316.186
319.175
322.368
325.872
329.889
334.835
341.718
352.916
300.587
300.727
300.963
301.34
301.94
302.876
304.253
306.092
308.314
310.806
313.485
316.312
319.293
322.478
325.973
329.98
334.916
341.787
352.968
300.602
300.746
300.988
301.376
301.992
302.951
304.353
306.212
308.445
310.94
313.616
316.437
319.41
322.587
326.073
330.071
334.996
341.855
353.02
300.617
300.765
301.013
301.412
302.045
303.027
304.453
306.332
308.575
311.073
313.746
316.561
319.526
322.694
326.172
330.161
335.076
341.923
353.072
300.632
300.784
301.039
301.449
302.099
303.104
304.555
306.452
308.705
311.205
313.875
316.683
319.641
322.801
326.27
330.25
335.155
341.99
353.123
300.648
300.803
301.065
301.486
302.154
303.182
304.657
306.572
308.834
311.336
314.002
316.805
319.755
322.907
326.367
330.338
335.234
342.056
353.174
300.664
300.823
301.092
301.524
302.209
303.26
304.759
306.692
308.963
311.465
314.128
316.925
319.868
323.011
326.463
330.425
335.311
342.122
353.225
300.68
300.843
301.119
301.563
302.266
303.34
304.862
306.811
309.09
311.594
314.254
317.044
319.98
323.115
326.559
330.512
335.388
342.187
353.275
300.696
300.864
301.147
301.603
302.323
303.42
304.965
306.931
309.217
311.722
314.378
317.162
320.09
323.218
326.653
330.598
335.465
342.252
353.325
300.713
300.884
301.175
301.643
302.382
303.502
305.069
307.05
309.344
311.849
314.501
317.279
320.2
323.32
326.747
330.683
335.541
342.317
353.374
300.729
300.905
301.204
301.684
302.441
303.584
305.173
307.169
309.469
311.974
314.623
317.395
320.309
323.421
326.84
330.768
335.616
342.381
353.423
300.747
300.927
301.233
301.726
302.501
303.667
305.277
307.288
309.594
312.099
314.744
317.51
320.417
323.521
326.932
330.852
335.691
342.444
353.471
300.764
300.949
301.263
301.768
302.562
303.751
305.382
307.406
309.719
312.223
314.863
317.624
320.523
323.62
327.024
330.935
335.765
342.507
353.52
300.781
300.971
301.293
301.811
302.624
303.835
305.487
307.525
309.842
312.346
314.982
317.736
320.629
323.719
327.114
331.018
335.839
342.57
353.568
300.799
300.993
301.323
301.855
302.687
303.921
305.592
307.643
309.965
312.468
315.1
317.848
320.734
323.817
327.204
331.1
335.912
342.632
353.615
300.817
301.016
301.355
301.9
302.751
304.007
305.698
307.76
310.087
312.589
315.217
317.959
320.838
323.913
327.294
331.181
335.984
342.694
353.662
300.836
301.04
301.387
301.945
302.816
304.094
305.804
307.877
310.208
312.71
315.333
318.069
320.942
324.009
327.382
331.262
336.056
342.755
353.709
300.855
301.063
301.419
301.991
302.881
304.181
305.909
307.994
310.329
312.829
315.448
318.178
321.044
324.105
327.47
331.342
336.128
342.816
353.756
300.874
301.087
301.452
302.038
302.948
304.269
306.015
308.111
310.449
312.947
315.562
318.286
321.145
324.199
327.557
331.421
336.199
342.876
353.802
300.893
301.112
301.485
302.086
303.015
304.358
306.122
308.227
310.568
313.065
315.675
318.394
321.246
324.293
327.644
331.5
336.269
342.936
353.848
300.912
301.137
301.519
302.134
303.083
304.447
306.228
308.343
310.687
313.182
315.788
318.5
321.346
324.386
327.73
331.578
336.339
342.996
353.894
300.932
301.162
301.554
302.184
303.152
304.537
306.334
308.458
310.805
313.298
315.899
318.606
321.445
324.478
327.815
331.656
336.409
343.055
353.939
300.953
301.188
301.589
302.234
303.221
304.627
306.44
308.573
310.922
313.413
316.01
318.71
321.543
324.569
327.899
331.733
336.478
343.114
353.984
300.973
301.214
301.625
302.284
303.292
304.718
306.547
308.687
311.038
313.527
316.119
318.814
321.641
324.66
327.983
331.81
336.546
343.172
354.029
300.994
301.24
301.661
302.336
303.363
304.809
306.653
308.801
311.154
313.64
316.228
318.918
321.738
324.75
328.066
331.886
336.614
343.23
354.073
301.015
301.267
301.698
302.388
303.435
304.901
306.759
308.915
311.269
313.753
316.336
319.02
321.834
324.84
328.149
331.962
336.682
343.288
354.117
301.036
301.294
301.736
302.441
303.508
304.993
306.865
309.028
311.383
313.865
316.444
319.121
321.929
324.929
328.231
332.037
336.749
343.345
354.161
301.058
301.322
301.774
302.495
303.581
305.086
306.971
309.141
311.497
313.976
316.55
319.222
322.023
325.017
328.313
332.111
336.816
343.402
354.205
301.08
301.35
301.813
302.549
303.656
305.179
307.078
309.253
311.61
314.086
316.656
319.322
322.117
325.104
328.394
332.185
336.882
343.459
354.248
301.103
301.379
301.852
302.605
303.73
305.272
307.183
309.365
311.722
314.196
316.76
319.421
322.211
325.191
328.474
332.259
336.948
343.515
354.291
301.126
301.408
301.892
302.661
303.806
305.366
307.289
309.476
311.834
314.305
316.865
319.52
322.303
325.278
328.554
332.332
337.013
343.571
354.334
301.149
301.438
301.933
302.718
303.882
305.46
307.395
309.587
311.945
314.413
316.968
319.618
322.395
325.363
328.633
332.405
337.078
343.626
354.376
301.172
301.468
301.974
302.775
303.959
305.554
307.5
309.697
312.055
314.52
317.071
319.715
322.486
325.448
328.712
332.477
337.143
343.682
354.419
301.196
301.499
302.016
302.834
304.037
305.648
307.606
309.807
312.165
314.626
317.172
319.811
322.577
325.533
328.79
332.548
337.207
343.737
354.461
301.22
301.53
302.059
302.893
304.115
305.743
307.711
309.916
312.274
314.732
317.274
319.907
322.667
325.617
328.868
332.62
337.271
343.791
354.503
301.245
301.561
302.102
302.953
304.194
305.838
307.816
310.025
312.382
314.837
317.374
320.002
322.756
325.7
328.945
332.69
337.335
343.845
354.544
301.27
301.593
302.146
303.013
304.273
305.933
307.921
310.134
312.49
314.942
317.474
320.097
322.845
325.783
329.022
332.761
337.398
343.899
354.586
301.295
301.626
302.19
303.074
304.353
306.028
308.025
310.242
312.597
315.046
317.573
320.19
322.933
325.865
329.098
332.831
337.46
343.953
354.627
301.321
301.659
302.235
303.136
304.433
306.124
308.13
310.349
312.704
315.149
317.672
320.283
323.02
325.947
329.174
332.9
337.523
344.006
354.667
301.347
301.692
302.281
303.199
304.514
306.219
308.234
310.456
312.809
315.251
317.769
320.376
323.107
326.028
329.25
332.969
337.585
344.059
354.708
301.373
301.727
302.328
303.263
304.596
306.315
308.337
310.562
312.915
315.353
317.867
320.468
323.194
326.109
329.324
333.038
337.647
344.112
354.749
301.4
301.761
302.375
303.327
304.677
306.411
308.441
310.668
313.019
315.454
317.963
320.559
323.279
326.189
329.399
333.106
337.708
344.165
354.789
301.428
301.796
302.423
303.392
304.76
306.507
308.544
310.774
313.123
315.555
318.059
320.65
323.365
326.269
329.473
333.174
337.769
344.217
354.829
301.455
301.832
302.471
303.457
304.843
306.603
308.647
310.879
313.227
315.655
318.154
320.74
323.449
326.348
329.546
333.241
337.829
344.269
354.869
301.484
301.868
302.521
303.523
304.926
306.699
308.75
310.983
313.33
315.754
318.249
320.83
323.534
326.427
329.619
333.308
337.89
344.32
354.908
301.512
301.905
302.571
303.59
305.01
306.795
308.853
311.087
313.432
315.853
318.343
320.918
323.617
326.505
329.692
333.375
337.95
344.372
354.947
301.541
301.942
302.621
303.658
305.094
306.891
308.955
311.191
313.534
315.951
318.436
321.007
323.7
326.583
329.764
333.441
338.009
344.423
354.987
301.571
301.98
302.672
303.726
305.178
306.987
309.057
311.294
313.635
316.048
318.529
321.095
323.783
326.66
329.836
333.507
338.069
344.474
355.026
301.601
302.019
302.724
303.794
305.263
307.083
309.158
311.396
313.735
316.145
318.622
321.182
323.865
326.737
329.907
333.573
338.128
344.524
355.064
301.631
302.058
302.777
303.864
305.348
307.179
309.26
311.499
313.835
316.241
318.713
321.269
323.947
326.813
329.978
333.638
338.186
344.575
355.103
301.662
302.098
302.83
303.934
305.434
307.275
309.361
311.6
313.935
316.337
318.805
321.355
324.028
326.889
330.049
333.703
338.245
344.625
355.141
301.693
302.138
302.884
304.004
305.519
307.371
309.461
311.701
314.034
316.432
318.895
321.441
324.109
326.965
330.119
333.767
338.303
344.675
355.179
301.725
302.179
302.939
304.075
305.605
307.467
309.562
311.802
314.132
316.527
318.985
321.526
324.189
327.04
330.189
333.832
338.361
344.724
355.217
301.757
302.22
302.994
304.147
305.692
307.563
309.662
311.902
314.23
316.621
319.075
321.611
324.269
327.114
330.258
333.896
338.418
344.774
355.255
301.79
302.262
303.05
304.219
305.778
307.659
309.762
312.002
314.327
316.715
319.164
321.695
324.348
327.189
330.327
333.959
338.475
344.823
355.293
301.823
302.305
303.107
304.292
305.865
307.755
309.861
312.101
314.424
316.808
319.252
321.779
324.427
327.263
330.396
334.022
338.532
344.872
355.33
301.857
302.348
303.164
304.366
305.952
307.85
309.96
312.2
314.52
316.9
319.34
321.862
324.505
327.336
330.464
334.085
338.589
344.92
355.368
301.891
302.392
303.222
304.44
306.04
307.946
310.059
312.298
314.616
316.992
319.428
321.945
324.583
327.409
330.532
334.148
338.646
344.969
355.405
301.926
302.436
303.281
304.514
306.127
308.041
310.157
312.396
314.711
317.083
319.515
322.027
324.661
327.482
330.6
334.21
338.702
345.017
355.442
301.961
302.481
303.34
304.589
306.215
308.137
310.255
312.494
314.806
317.174
319.602
322.109
324.738
327.554
330.667
334.272
338.758
345.065
355.478
301.997
302.527
303.4
304.664
306.303
308.232
310.353
312.591
314.901
317.265
319.688
322.191
324.815
327.626
330.734
334.334
338.813
345.113
355.515
302.033
302.573
303.46
304.74
306.391
308.327
310.451
312.688
314.994
317.355
319.773
322.272
324.891
327.697
330.801
334.395
338.869
345.16
355.551
302.07
302.62
303.522
304.816
306.479
308.422
310.548
312.784
315.088
317.444
319.858
322.352
324.967
327.769
330.867
334.456
338.924
345.208
355.588
302.108
302.668
303.583
304.893
306.567
308.517
310.645
312.879
315.181
317.533
319.943
322.432
325.042
327.839
330.933
334.517
338.979
345.255
355.624
302.146
302.716
303.646
304.97
306.656
308.611
310.741
312.975
315.273
317.622
320.027
322.512
325.117
327.91
330.999
334.578
339.033
345.302
355.66
302.184
302.765
303.709
305.048
306.744
308.706
310.837
313.07
315.365
317.71
320.111
322.591
325.192
327.98
331.064
334.638
339.088
345.349
355.696
302.223
302.814
303.772
305.126
306.833
308.8
310.933
313.164
315.456
317.798
320.194
322.67
325.267
328.05
331.129
334.698
339.142
345.395
355.731
302.263
302.865
303.837
305.204
306.921
308.894
311.028
313.258
315.547
317.885
320.277
322.749
325.341
328.119
331.194
334.757
339.196
345.442
355.767
302.303
302.915
303.902
305.283
307.01
308.988
311.123
313.352
315.638
317.972
320.36
322.827
325.414
328.188
331.258
334.817
339.249
345.488
355.802
302.344
302.967
303.967
305.362
307.099
309.082
311.218
313.445
315.728
318.058
320.442
322.905
325.487
328.257
331.323
334.876
339.303
345.534
355.838
302.385
303.019
304.033
305.441
307.188
309.176
311.313
313.538
315.818
318.144
320.524
322.982
325.56
328.326
331.386
334.935
339.356
345.58
355.873
302.427
303.072
304.1
305.521
307.277
309.269
311.407
313.63
315.907
318.229
320.605
323.059
325.633
328.394
331.45
334.994
339.409
345.625
355.908
302.47
303.125
304.167
305.601
307.366
309.362
311.501
313.722
315.996
318.314
320.686
323.135
325.705
328.462
331.513
335.052
339.462
345.671
355.943
302.513
303.179
304.234
305.682
307.455
309.455
311.594
313.814
316.084
318.399
320.766
323.212
325.777
328.529
331.576
335.11
339.515
345.716
355.977
302.557
303.234
304.303
305.762
307.544
309.548
311.687
313.905
316.172
318.483
320.846
323.287
325.849
328.596
331.639
335.168
339.567
345.761
356.012
302.602
303.289
304.371
305.843
307.633
309.641
311.78
313.996
316.26
318.567
320.926
323.363
325.92
328.663
331.701
335.226
339.619
345.806
356.046
302.647
303.345
304.441
305.925
307.722
309.733
311.873
314.086
316.347
318.65
321.005
323.438
325.991
328.73
331.764
335.283
339.671
345.851
356.081
302.692
303.401
304.511
306.006
307.811
309.825
311.965
314.176
316.434
318.733
321.084
323.513
326.061
328.796
331.826
335.341
339.723
345.896
356.115
302.739
303.459
304.581
306.088
307.9
309.917
312.057
314.266
316.521
318.816
321.163
323.587
326.131
328.862
331.887
335.398
339.774
345.94
356.149
302.786
303.516
304.652
306.17
307.99
310.009
312.148
314.355
316.607
318.898
321.241
323.661
326.201
328.928
331.949
335.454
339.826
345.984
356.183
302.833
303.575
304.723
306.252
308.079
310.101
312.239
314.444
316.692
318.98
321.319
323.735
326.271
328.993
332.01
335.511
339.877
346.029
356.217
302.882
303.634
304.795
306.335
308.168
310.192
312.33
314.533
316.778
319.061
321.396
323.808
326.34
329.059
332.071
335.567
339.928
346.073
356.251
302.931
303.694
304.867
306.418
308.257
310.283
312.421
314.621
316.862
319.142
321.473
323.882
326.409
329.123
332.132
335.623
339.979
346.116
356.284
302.98
303.754
304.94
306.501
308.346
310.374
312.511
314.709
316.947
319.223
321.55
323.954
326.478
329.188
332.192
335.679
340.03
346.16
356.318
303.03
303.815
305.013
306.584
308.434
310.465
312.601
314.796
317.031
319.304
321.627
324.027