/*--------------------------------*- C++ -*----------------------------------*\
| =========                 |                                                 |
| \\      /  F ield         | OpenFOAM: The Open Source CFD Toolbox           |
|  \\    /   O peration     | Version:  2212                                  |
|   \\  /    A nd           | Website:  www.openfoam.com                      |
|    \\/     M anipulation  |                                                 |
\*---------------------------------------------------------------------------*/
FoamFile
{
    version     2.0;
    format      ascii;
    arch        "LSB;label=32;scalar=64";
    class       volScalarField;
    location    "100000";
    object      nut;
}
// * * * * * * * * * * * * * * * * * * * * * * * * * * * * * * * * * * * * * //

dimensions      [0 2 -1 0 0 0 0];

internalField   nonuniform List<scalar> 
200000
(
0.000167768
0.000167763
0.000167757
0.000167745
0.000167633
0.000167307
0.000166508
0.000164692
0.000160877
0.000153462
0.000140214
0.000118795
8.84517e-05
5.29095e-05
2.21445e-05
5.9426e-06
1.12469e-06
8.55254e-07
1.89443e-06
0.000167939
0.000167943
0.000167896
0.000167659
0.000166894
0.000164919
0.000160677
0.000152742
0.000139634
0.000120491
9.59071e-05
6.84166e-05
4.20535e-05
2.09698e-05
8.14485e-06
2.53499e-06
8.65383e-07
1.29119e-06
1.95743e-06
0.00016841
0.000168335
0.000167958
0.000166797
0.000164088
0.000158726
0.000149463
0.00013538
0.000116404
9.36533e-05
6.92966e-05
4.61935e-05
2.69378e-05
1.31526e-05
5.22031e-06
1.6935e-06
8.95767e-07
1.44017e-06
1.83716e-06
0.000168875
0.000168446
0.000167221
0.000164405
0.000158964
0.000149844
0.000136364
0.000118622
9.76602e-05
7.52841e-05
5.36926e-05
3.48049e-05
1.99559e-05
9.70642e-06
3.84469e-06
1.30206e-06
1.04015e-06
1.53114e-06
1.6942e-06
0.000169063
0.000167962
0.000165429
0.000160506
0.00015223
0.000139976
0.000123783
0.000104486
8.3559e-05
6.27809e-05
4.3844e-05
2.80019e-05
1.59145e-05
7.65971e-06
3.02559e-06
1.20403e-06
1.27189e-06
1.64479e-06
1.58423e-06
0.000168746
0.000166696
0.000162576
0.000155481
0.00014475
0.000130276
0.000112643
9.3032e-05
7.29559e-05
5.39301e-05
3.71968e-05
2.35501e-05
1.3277e-05
6.27665e-06
2.42991e-06
1.27159e-06
1.57926e-06
1.76258e-06
1.50863e-06
0.000167783
0.000164614
0.000158848
0.000149792
0.000137167
0.000121295
0.000103078
8.37957e-05
6.48301e-05
4.74095e-05
3.24305e-05
2.0377e-05
1.13321e-05
5.23964e-06
2.09759e-06
1.43359e-06
1.90091e-06
1.86412e-06
1.45606e-06
0.000166142
0.000161814
0.000154511
0.000143836
0.000129864
0.000113215
9.49393e-05
7.62827e-05
5.84496e-05
4.24146e-05
2.88184e-05
1.79411e-05
9.77041e-06
4.38358e-06
1.93732e-06
1.73215e-06
2.20857e-06
1.94784e-06
1.41916e-06
0.000163877
0.000158452
0.000149821
0.000137892
0.000123028
0.000106035
8.80032e-05
7.00871e-05
5.33118e-05
3.84438e-05
2.59353e-05
1.5936e-05
8.43541e-06
3.73549e-06
1.92196e-06
2.10016e-06
2.48209e-06
2.01556e-06
1.39301e-06
0.000161094
0.000154694
0.000144975
0.000132127
0.000116724
9.9676e-05
8.20521e-05
6.48943e-05
4.90652e-05
3.51636e-05
2.35048e-05
1.41693e-05
7.26403e-06
3.25064e-06
2.04797e-06
2.49193e-06
2.71834e-06
2.07084e-06
1.3735e-06
0.000157892
0.000150683
0.000140119
0.000126632
0.000110953
9.40341e-05
7.68957e-05
6.04639e-05
4.54612e-05
3.23563e-05
2.13756e-05
1.25956e-05
6.28784e-06
2.94617e-06
2.32111e-06
2.87117e-06
2.92242e-06
2.11644e-06
1.35853e-06
0.000154402
0.00014654
0.000135346
0.000121448
0.00010568
8.90053e-05
7.23779e-05
5.66163e-05
4.23255e-05
2.9876e-05
1.94395e-05
1.11347e-05
5.45094e-06
2.81842e-06
2.67617e-06
3.21949e-06
3.09936e-06
2.15346e-06
1.34671e-06
0.000150721
0.000142357
0.000130717
0.000116584
0.000100859
8.44943e-05
6.83726e-05
5.32167e-05
3.95367e-05
2.76348e-05
1.76711e-05
9.865e-06
4.80055e-06
2.84808e-06
3.06681e-06
3.53198e-06
3.25194e-06
2.18486e-06
1.33713e-06
0.000146935
0.000138202
0.000126266
0.000112032
9.64413e-05
8.04182e-05
6.47796e-05
5.01644e-05
3.70089e-05
2.55724e-05
1.60301e-05
8.7181e-06
4.32784e-06
3.01863e-06
3.46039e-06
3.81065e-06
3.38282e-06
2.21121e-06
1.32925e-06
0.000143112
0.000134121
0.000122011
0.000107776
9.23769e-05
7.67072e-05
6.15197e-05
4.73833e-05
3.46777e-05
2.36382e-05
1.44821e-05
7.71843e-06
4.03423e-06
3.292e-06
3.83809e-06
4.05913e-06
3.49482e-06
2.23271e-06
1.32256e-06
0.000139303
0.000130147
0.000117957
0.000103792
8.8622e-05
7.33027e-05
5.8531e-05
4.48185e-05
3.25071e-05
2.18362e-05
1.3096e-05
6.88598e-06
3.90451e-06
3.62368e-06
4.19101e-06
4.2812e-06
3.59193e-06
2.25053e-06
1.3167e-06
0.000135547
0.000126299
0.000114102
0.000100059
8.51372e-05
7.01572e-05
5.57665e-05
4.24325e-05
3.04765e-05
2.01585e-05
1.18344e-05
6.22296e-06
3.90949e-06
3.98237e-06
4.5167e-06
4.4795e-06
3.6762e-06
2.26548e-06
1.31148e-06
0.000131871
0.000122589
0.000110439
9.6553e-05
8.18882e-05
6.72317e-05
5.31887e-05
4.01933e-05
2.85547e-05
1.85618e-05
1.06861e-05
5.72603e-06
4.04214e-06
4.34889e-06
4.81628e-06
4.65648e-06
3.74943e-06
2.27796e-06
1.30681e-06
0.000128293
0.000119022
0.000106959
9.32525e-05
7.88457e-05
6.44942e-05
5.07683e-05
3.80781e-05
2.67358e-05
1.70793e-05
9.67526e-06
5.38729e-06
4.25807e-06
4.70979e-06
5.09184e-06
4.81491e-06
3.81361e-06
2.28842e-06
1.30257e-06
0.000124826
0.0001156
0.000103652
9.01378e-05
7.59848e-05
6.19196e-05
4.84846e-05
3.60768e-05
2.50248e-05
1.57205e-05
8.81762e-06
5.19236e-06
4.52927e-06
5.05721e-06
5.34538e-06
4.95752e-06
3.87043e-06
2.29736e-06
1.29869e-06
0.000121476
0.000112319
0.000100506
8.71911e-05
7.32841e-05
5.9486e-05
4.6317e-05
3.41661e-05
2.33844e-05
1.44573e-05
8.10058e-06
5.1141e-06
4.83436e-06
5.38753e-06
5.57869e-06
5.08661e-06
3.9212e-06
2.30514e-06
1.29512e-06
0.000118245
0.000109177
9.75105e-05
8.43964e-05
7.07258e-05
5.71775e-05
4.42569e-05
3.23593e-05
2.18801e-05
1.33115e-05
7.5297e-06
5.15426e-06
5.15876e-06
5.69994e-06
5.79353e-06
5.2039e-06
3.96673e-06
2.31206e-06
1.29185e-06
0.000115135
0.000106166
9.46548e-05
8.17398e-05
6.82948e-05
5.49801e-05
4.22912e-05
3.06314e-05
2.0423e-05
1.22702e-05
7.0952e-06
5.27666e-06
5.49069e-06
5.99482e-06
5.99169e-06
5.31073e-06
4.00776e-06
2.31812e-06
1.28883e-06
0.000112143
0.000103283
9.1929e-05
7.92088e-05
6.59787e-05
5.28839e-05
4.04157e-05
2.89941e-05
1.90835e-05
1.13542e-05
6.78745e-06
5.46048e-06
5.8218e-06
6.2729e-06
6.175e-06
5.40859e-06
4.04526e-06
2.32352e-06
1.28603e-06
0.000109266
0.000100519
8.93236e-05
7.67926e-05
6.37662e-05
5.08766e-05
3.86121e-05
2.74092e-05
1.78224e-05
1.05499e-05
6.58078e-06
5.68862e-06
6.14671e-06
6.53494e-06
6.34512e-06
5.49865e-06
4.07957e-06
2.32841e-06
1.28344e-06
0.000106501
9.78692e-05
8.68302e-05
7.44816e-05
6.16483e-05
4.89539e-05
3.68941e-05
2.59467e-05
1.66541e-05
9.87027e-06
6.49203e-06
5.94941e-06
6.46254e-06
6.7818e-06
6.50345e-06
5.58187e-06
4.11106e-06
2.33283e-06
1.28103e-06
0.000103843
9.53265e-05
8.4441e-05
7.22675e-05
5.96178e-05
4.71099e-05
3.52489e-05
2.45371e-05
1.55727e-05
9.31005e-06
6.48828e-06
6.23202e-06
6.76791e-06
7.01443e-06
6.65116e-06
5.65902e-06
4.14009e-06
2.33688e-06
1.27879e-06
0.000101287
9.2885e-05
8.21486e-05
7.01429e-05
5.76675e-05
4.53366e-05
3.36644e-05
2.31733e-05
1.45806e-05
8.85534e-06
6.55281e-06
6.52755e-06
7.06221e-06
7.23386e-06
6.78926e-06
5.73075e-06
4.16695e-06
2.3406e-06
1.27671e-06
9.88281e-05
9.05389e-05
7.99467e-05
6.81014e-05
5.57917e-05
4.36313e-05
3.2151e-05
2.19175e-05
1.36869e-05
8.50241e-06
6.67305e-06
6.82921e-06
7.34518e-06
7.4411e-06
6.91869e-06
5.79765e-06
4.19188e-06
2.34404e-06
1.27477e-06
9.64623e-05
8.82825e-05
7.78293e-05
6.61369e-05
5.39851e-05
4.19886e-05
3.06973e-05
2.0728e-05
1.28901e-05
8.24672e-06
6.83817e-06
7.13218e-06
7.61681e-06
7.63711e-06
7.04025e-06
5.8602e-06
4.21512e-06
2.34725e-06
1.27296e-06
9.41844e-05
8.61108e-05
7.57909e-05
6.42445e-05
5.22437e-05
4.04084e-05
2.93145e-05
1.96069e-05
1.21922e-05
8.08543e-06
7.03935e-06
7.43322e-06
7.87725e-06
7.82273e-06
7.15466e-06
5.91885e-06
4.23683e-06
2.35024e-06
1.27127e-06
9.19899e-05
8.40187e-05
7.38267e-05
6.24197e-05
5.05642e-05
3.88872e-05
2.79885e-05
1.85579e-05
1.15888e-05
7.99844e-06
7.26805e-06
7.73023e-06
8.12681e-06
7.99875e-06
7.26257e-06
5.97397e-06
4.2572e-06
2.35306e-06
1.26969e-06
8.98746e-05
8.20019e-05
7.19322e-05
6.06581e-05
4.89415e-05
3.74157e-05
2.66968e-05
1.75805e-05
1.10747e-05
7.97529e-06
7.51683e-06
8.02176e-06
8.36589e-06
8.16587e-06
7.36453e-06
6.02591e-06
4.27639e-06
2.35574e-06
1.26822e-06
8.78342e-05
8.00561e-05
7.01032e-05
5.8956e-05
4.73734e-05
3.6001e-05
2.54921e-05
1.66815e-05
1.06457e-05
8.00759e-06
7.77959e-06
8.30686e-06
8.59497e-06
8.32475e-06
7.46105e-06
6.07494e-06
4.29446e-06
2.35828e-06
1.26684e-06
8.58648e-05
7.81773e-05
6.83361e-05
5.73104e-05
4.58588e-05
3.46429e-05
2.43517e-05
1.586e-05
1.02968e-05
8.08738e-06
8.05146e-06
8.5849e-06
8.81457e-06
8.47598e-06
7.55258e-06
6.12133e-06
4.31155e-06
2.36071e-06
1.26555e-06
8.39628e-05
7.6362e-05
6.66274e-05
5.57186e-05
4.43952e-05
3.33362e-05
2.32646e-05
1.51173e-05
1.00313e-05
8.20809e-06
8.32874e-06
8.85546e-06
9.02517e-06
8.62012e-06
7.63951e-06
6.16531e-06
4.32775e-06
2.36304e-06
1.26434e-06
8.21247e-05
7.46067e-05
6.49742e-05
5.41778e-05
4.29796e-05
3.2077e-05
2.22323e-05
1.44503e-05
9.83428e-06
8.36294e-06
8.60862e-06
9.11834e-06
9.22725e-06
8.75766e-06
7.7222e-06
6.20708e-06
4.34314e-06
2.36529e-06
1.26322e-06
8.03473e-05
7.29085e-05
6.33737e-05
5.26859e-05
4.16118e-05
3.08701e-05
2.12592e-05
1.38564e-05
9.69854e-06
8.5456e-06
8.88896e-06
9.37349e-06
9.4213e-06
8.88909e-06
7.80106e-06
6.24697e-06
4.35785e-06
2.36747e-06
1.26217e-06
7.86275e-05
7.12645e-05
6.1823e-05
5.12394e-05
4.02833e-05
2.96813e-05
2.03406e-05
1.33324e-05
9.61844e-06
8.75049e-06
9.16813e-06
9.62094e-06
9.60775e-06
9.01483e-06
7.87632e-06
6.28494e-06
4.37188e-06
2.36959e-06
1.26118e-06
7.69625e-05
6.96718e-05
6.03196e-05
4.98368e-05
3.90007e-05
2.85704e-05
1.94829e-05
1.28755e-05
9.58843e-06
8.97286e-06
9.44488e-06
9.86083e-06
9.78702e-06
9.13524e-06
7.94821e-06
6.32113e-06
4.38527e-06
2.37164e-06
1.26026e-06
7.53497e-05
6.8128e-05
5.88616e-05
4.84774e-05
3.77643e-05
2.75126e-05
1.86869e-05
1.24864e-05
9.60333e-06
9.20867e-06
9.71826e-06
1.00933e-05
9.9595e-06
9.25066e-06
8.01696e-06
6.3557e-06
4.39809e-06
2.37365e-06
1.2594e-06
7.37865e-05
6.66309e-05
5.74471e-05
4.71597e-05
3.65703e-05
2.6499e-05
1.79523e-05
1.21631e-05
9.65827e-06
9.45459e-06
9.98757e-06
1.03186e-05
1.01256e-05
9.3614e-06
8.08279e-06
6.3888e-06
4.41038e-06
2.3756e-06
1.2586e-06
7.22707e-05
6.51783e-05
5.60741e-05
4.58816e-05
3.54153e-05
2.55266e-05
1.72766e-05
1.18979e-05
9.74825e-06
9.70787e-06
1.02523e-05
1.0537e-05
1.02855e-05
9.46777e-06
8.14592e-06
6.42052e-06
4.42218e-06
2.37751e-06
1.25785e-06
7.07996e-05
6.37683e-05
5.47413e-05
4.46429e-05
3.43025e-05
2.45992e-05
1.66584e-05
1.16866e-05
9.86845e-06
9.96625e-06
1.05121e-05
1.07486e-05
1.04398e-05
9.57002e-06
8.20652e-06
6.45098e-06
4.43355e-06
2.37939e-06
1.25715e-06
6.93717e-05
6.23989e-05
5.34462e-05
4.34368e-05
3.32033e-05
2.37138e-05
1.60959e-05
1.15257e-05
1.00145e-05
1.02278e-05
1.07667e-05
1.09537e-05
1.05886e-05
9.66842e-06
8.26475e-06
6.48025e-06
4.4445e-06
2.38123e-06
1.2565e-06
6.79851e-05
6.10683e-05
5.21869e-05
4.22656e-05
3.21551e-05
2.28735e-05
1.55874e-05
1.14117e-05
1.01825e-05
1.04911e-05
1.1016e-05
1.11526e-05
1.07322e-05
9.76319e-06
8.32078e-06
6.50842e-06
4.45507e-06
2.38305e-06
1.2559e-06
6.6638e-05
5.97748e-05
5.09628e-05
4.11316e-05
3.11577e-05
2.20806e-05
1.51332e-05
1.1341e-05
1.03688e-05
1.07549e-05
1.12598e-05
1.13455e-05
1.0871e-05
9.85454e-06
8.37473e-06
6.53556e-06
4.46528e-06
2.38484e-06
1.25533e-06
6.53288e-05
5.85171e-05
4.97732e-05
4.00341e-05
3.02043e-05
2.13365e-05
1.47343e-05
1.13103e-05
1.05704e-05
1.10181e-05
1.14982e-05
1.15327e-05
1.10051e-05
9.94268e-06
8.42673e-06
6.56174e-06
4.47517e-06
2.38661e-06
1.25481e-06
6.40559e-05
5.72939e-05
4.86171e-05
3.89703e-05
2.92813e-05
2.06392e-05
1.43853e-05
1.1316e-05
1.07845e-05
1.128e-05
1.17312e-05
1.17143e-05
1.11349e-05
1.00278e-05
8.4769e-06
6.58701e-06
4.48475e-06
2.38837e-06
1.25432e-06
6.28179e-05
5.61039e-05
4.74927e-05
3.79373e-05
2.83901e-05
1.99871e-05
1.40837e-05
1.13546e-05
1.10088e-05
1.15399e-05
1.19587e-05
1.18907e-05
1.12605e-05
1.011e-05
8.52537e-06
6.61144e-06
4.49405e-06
2.3901e-06
1.25388e-06
6.16134e-05
5.49461e-05
4.64005e-05
3.69395e-05
2.75337e-05
1.93793e-05
1.38275e-05
1.14226e-05
1.12413e-05
1.17972e-05
1.2181e-05
1.20619e-05
1.13821e-05
1.01895e-05
8.57214e-06
6.6349e-06
4.50302e-06
2.3918e-06
1.25346e-06
6.04411e-05
5.38186e-05
4.53333e-05
3.59412e-05
2.67086e-05
1.8815e-05
1.36148e-05
1.15169e-05
1.14801e-05
1.20516e-05
1.2398e-05
1.22283e-05
1.14999e-05
1.02664e-05
8.6173e-06
6.65753e-06
4.51169e-06
2.39348e-06
1.25308e-06
5.92997e-05
5.27199e-05
4.42937e-05
3.49901e-05
2.59178e-05
1.8293e-05
1.34431e-05
1.16345e-05
1.17237e-05
1.23028e-05
1.261e-05
1.239e-05
1.16142e-05
1.03408e-05
8.66101e-06
6.67955e-06
4.52014e-06
2.39514e-06
1.25272e-06
5.81878e-05
5.16495e-05
4.32838e-05
3.40811e-05
2.51637e-05
1.78157e-05
1.33104e-05
1.17726e-05
1.19708e-05
1.25505e-05
1.2817e-05
1.25473e-05
1.1725e-05
1.04129e-05
8.70338e-06
6.70095e-06
4.52837e-06
2.39679e-06
1.2524e-06
5.71046e-05
5.06069e-05
4.23043e-05
3.3213e-05
2.4448e-05
1.73812e-05
1.32145e-05
1.19286e-05
1.22204e-05
1.27946e-05
1.30191e-05
1.27002e-05
1.18325e-05
1.04829e-05
8.74448e-06
6.72174e-06
4.53643e-06
2.39844e-06
1.2521e-06
5.6049e-05
4.95917e-05
4.13527e-05
3.23657e-05
2.37687e-05
1.69875e-05
1.31528e-05
1.21003e-05
1.24714e-05
1.30348e-05
1.32165e-05
1.2849e-05
1.1937e-05
1.05507e-05
8.78436e-06
6.74196e-06
4.5443e-06
2.40009e-06
1.25184e-06
5.50203e-05
4.86025e-05
4.04261e-05
3.15417e-05
2.31243e-05
1.66333e-05
1.31231e-05
1.22854e-05
1.27231e-05
1.32711e-05
1.34093e-05
1.29939e-05
1.20385e-05
1.06166e-05
8.82309e-06
6.76161e-06
4.55199e-06
2.40174e-06
1.25159e-06
5.40177e-05
4.76396e-05
3.95281e-05
3.07439e-05
2.25144e-05
1.63177e-05
1.31229e-05
1.24821e-05
1.29748e-05
1.35035e-05
1.35976e-05
1.31349e-05
1.21372e-05
1.06806e-05
8.86072e-06
6.78073e-06
4.55951e-06
2.40337e-06
1.25138e-06
5.304e-05
4.66979e-05
3.86287e-05
2.99703e-05
2.19385e-05
1.60395e-05
1.31499e-05
1.26887e-05
1.32259e-05
1.37319e-05
1.37816e-05
1.32723e-05
1.22332e-05
1.07428e-05
8.8973e-06
6.79935e-06
4.56687e-06
2.405e-06
1.25118e-06
5.20855e-05
4.57773e-05
3.77591e-05
2.92219e-05
2.13957e-05
1.57975e-05
1.32019e-05
1.29036e-05
1.34759e-05
1.39563e-05
1.39614e-05
1.34063e-05
1.23266e-05
1.08033e-05
8.93289e-06
6.81749e-06
4.57406e-06
2.40663e-06
1.25101e-06
5.11536e-05
4.48801e-05
3.69285e-05
2.85011e-05
2.0888e-05
1.55905e-05
1.32767e-05
1.31254e-05
1.37246e-05
1.41767e-05
1.41371e-05
1.35368e-05
1.24175e-05
1.08622e-05
8.96752e-06
6.83516e-06
4.58111e-06
2.40824e-06
1.25086e-06
5.02443e-05
4.40085e-05
3.61381e-05
2.78102e-05
2.04143e-05
1.5417e-05
1.33722e-05
1.3353e-05
1.39714e-05
1.43931e-05
1.43089e-05
1.36641e-05
1.25061e-05
1.09195e-05
9.00125e-06
6.8524e-06
4.58802e-06
2.40986e-06
1.25074e-06
4.93575e-05
4.31605e-05
3.5363e-05
2.7148e-05
1.99735e-05
1.52757e-05
1.34866e-05
1.35851e-05
1.42162e-05
1.46057e-05
1.44768e-05
1.37884e-05
1.25924e-05
1.09754e-05
9.03411e-06
6.86921e-06
4.59478e-06
2.41146e-06
1.25063e-06
4.84923e-05
4.23336e-05
3.46049e-05
2.6513e-05
1.95653e-05
1.5165e-05
1.36178e-05
1.3821e-05
1.44587e-05
1.48144e-05
1.46411e-05
1.39096e-05
1.26766e-05
1.10298e-05
9.06614e-06
6.88563e-06
4.60142e-06
2.41306e-06
1.25054e-06
4.76489e-05
4.15295e-05
3.3866e-05
2.59048e-05
1.91892e-05
1.50835e-05
1.37643e-05
1.40598e-05
1.46988e-05
1.50193e-05
1.48018e-05
1.40279e-05
1.27586e-05
1.10828e-05
9.09737e-06
6.90166e-06
4.60793e-06
2.41465e-06
1.25046e-06
4.68244e-05
4.07299e-05
3.31465e-05
2.5323e-05
1.88446e-05
1.50294e-05
1.39244e-05
1.43006e-05
1.49362e-05
1.52204e-05
1.49589e-05
1.41435e-05
1.28387e-05
1.11345e-05
9.12785e-06
6.91731e-06
4.61432e-06
2.41624e-06
1.25041e-06
4.60162e-05
3.99404e-05
3.24456e-05
2.4767e-05
1.85311e-05
1.50014e-05
1.40965e-05
1.4543e-05
1.51709e-05
1.54179e-05
1.51128e-05
1.42564e-05
1.29168e-05
1.1185e-05
9.15759e-06
6.93261e-06
4.62059e-06
2.41783e-06
1.25037e-06
4.52269e-05
3.91899e-05
3.17652e-05
2.42377e-05
1.8248e-05
1.49977e-05
1.42793e-05
1.47863e-05
1.54027e-05
1.56118e-05
1.52633e-05
1.43668e-05
1.29931e-05
1.12343e-05
9.18663e-06
6.94757e-06
4.62675e-06
2.4194e-06
1.25034e-06
4.44591e-05
3.84756e-05
3.11078e-05
2.37351e-05
1.79946e-05
1.5017e-05
1.44716e-05
1.50301e-05
1.56317e-05
1.58021e-05
1.54107e-05
1.44746e-05
1.30676e-05
1.12824e-05
9.21499e-06
6.96217e-06
4.63279e-06
2.42097e-06
1.25033e-06
4.37115e-05
3.77741e-05
3.04729e-05
2.32586e-05
1.77702e-05
1.50576e-05
1.4672e-05
1.52738e-05
1.58576e-05
1.5989e-05
1.5555e-05
1.45801e-05
1.31404e-05
1.13293e-05
9.24271e-06
6.97649e-06
4.63873e-06
2.42254e-06
1.25034e-06
4.2982e-05
3.70856e-05
2.98594e-05
2.2808e-05
1.7574e-05
1.5118e-05
1.48797e-05
1.55172e-05
1.60806e-05
1.61724e-05
1.56964e-05
1.46832e-05
1.32116e-05
1.13752e-05
9.26972e-06
6.99031e-06
4.64451e-06
2.42408e-06
1.25035e-06
4.22722e-05
3.64119e-05
2.92668e-05
2.23834e-05
1.74051e-05
1.5197e-05
1.50936e-05
1.576e-05
1.63006e-05
1.63526e-05
1.58349e-05
1.47841e-05
1.32812e-05
1.14201e-05
9.29633e-06
7.00443e-06
4.65037e-06
2.42567e-06
1.25038e-06
4.15648e-05
3.57539e-05
2.86946e-05
2.19844e-05
1.72627e-05
1.5293e-05
1.53128e-05
1.60018e-05
1.65175e-05
1.65295e-05
1.59706e-05
1.48829e-05
1.33492e-05
1.14641e-05
9.32246e-06
7.0182e-06
4.65618e-06
2.42726e-06
1.25043e-06
4.08668e-05
3.51109e-05
2.81426e-05
2.16109e-05
1.71459e-05
1.54046e-05
1.55365e-05
1.62424e-05
1.67314e-05
1.67032e-05
1.61035e-05
1.49796e-05
1.34159e-05
1.15072e-05
9.34804e-06
7.03162e-06
4.66188e-06
2.42884e-06
1.25049e-06
4.01964e-05
3.44833e-05
2.76107e-05
2.12627e-05
1.70536e-05
1.55308e-05
1.5764e-05
1.64816e-05
1.69423e-05
1.68739e-05
1.62339e-05
1.50743e-05
1.34811e-05
1.15493e-05
9.37306e-06
7.04473e-06
4.66747e-06
2.43041e-06
1.25056e-06
3.95599e-05
3.3873e-05
2.70995e-05
2.09395e-05
1.69849e-05
1.56701e-05
1.59948e-05
1.67192e-05
1.71502e-05
1.70415e-05
1.63617e-05
1.51671e-05
1.35449e-05
1.15906e-05
9.39755e-06
7.05757e-06
4.67295e-06
2.43197e-06
1.25064e-06
3.89359e-05
3.32806e-05
2.66085e-05
2.06411e-05
1.69388e-05
1.58215e-05
1.62281e-05
1.6955e-05
1.73551e-05
1.72062e-05
1.64871e-05
1.52579e-05
1.36075e-05
1.16309e-05
9.42153e-06
7.07017e-06
4.67836e-06
2.43352e-06
1.25074e-06
3.83233e-05
3.27054e-05
2.61378e-05
2.03672e-05
1.69142e-05
1.59838e-05
1.64635e-05
1.7189e-05
1.75571e-05
1.7368e-05
1.66101e-05
1.5347e-05
1.36687e-05
1.16705e-05
9.44504e-06
7.08253e-06
4.68368e-06
2.43507e-06
1.25084e-06
3.77232e-05
3.21469e-05
2.56873e-05
2.01173e-05
1.69101e-05
1.61561e-05
1.67005e-05
1.7421e-05
1.77561e-05
1.7527e-05
1.67307e-05
1.54343e-05
1.37287e-05
1.17093e-05
9.4681e-06
7.09468e-06
4.68893e-06
2.43661e-06
1.25095e-06
3.71365e-05
3.16047e-05
2.52571e-05
1.98913e-05
1.69255e-05
1.63373e-05
1.69386e-05
1.7651e-05
1.79523e-05
1.76833e-05
1.68491e-05
1.55199e-05
1.37876e-05
1.17473e-05
9.49071e-06
7.10663e-06
4.69411e-06
2.43815e-06
1.25107e-06
3.65633e-05
3.10785e-05
2.4847e-05
1.96885e-05
1.69593e-05
1.65266e-05
1.71776e-05
1.78787e-05
1.81455e-05
1.78369e-05
1.69653e-05
1.56039e-05
1.38452e-05
1.17845e-05
9.5129e-06
7.11837e-06
4.69923e-06
2.43968e-06
1.2512e-06
3.60039e-05
3.05683e-05
2.44572e-05
1.95086e-05
1.70106e-05
1.67232e-05
1.7417e-05
1.81043e-05
1.8336e-05
1.79878e-05
1.70794e-05
1.56862e-05
1.39018e-05
1.18211e-05
9.53467e-06
7.1299e-06
4.70427e-06
2.44122e-06
1.25134e-06
3.54581e-05
3.00739e-05
2.40874e-05
1.9351e-05
1.70783e-05
1.69262e-05
1.76566e-05
1.83276e-05
1.85237e-05
1.81362e-05
1.71913e-05
1.5767e-05
1.39573e-05
1.1857e-05
9.55614e-06
7.14148e-06
4.70933e-06
2.44277e-06
1.25149e-06
3.49259e-05
2.95953e-05
2.37377e-05
1.92153e-05
1.71613e-05
1.71349e-05
1.78961e-05
1.85486e-05
1.87086e-05
1.82822e-05
1.73013e-05
1.58463e-05
1.40117e-05
1.18922e-05
9.57729e-06
7.15289e-06
4.71437e-06
2.44433e-06
1.25165e-06
3.44071e-05
2.91324e-05
2.34079e-05
1.91009e-05
1.72589e-05
1.73487e-05
1.81353e-05
1.87673e-05
1.88908e-05
1.84257e-05
1.74093e-05
1.59241e-05
1.40651e-05
1.19268e-05
9.59803e-06
7.16394e-06
4.7193e-06
2.44587e-06
1.25182e-06
3.39016e-05
2.86855e-05
2.30981e-05
1.90072e-05
1.73699e-05
1.7567e-05
1.83738e-05
1.89836e-05
1.90704e-05
1.85668e-05
1.75154e-05
1.60005e-05
1.41176e-05
1.19608e-05
9.61834e-06
7.17474e-06
4.72412e-06
2.4474e-06
1.252e-06
3.34095e-05
2.82544e-05
2.28081e-05
1.89336e-05
1.74935e-05
1.77891e-05
1.86116e-05
1.91975e-05
1.92474e-05
1.87056e-05
1.76197e-05
1.60756e-05
1.41691e-05
1.19941e-05
9.63827e-06
7.18536e-06
4.72886e-06
2.44891e-06
1.25218e-06
3.29304e-05
2.78391e-05
2.25379e-05
1.88795e-05
1.76289e-05
1.80147e-05
1.88485e-05
1.9409e-05
1.94218e-05
1.88422e-05
1.77222e-05
1.61493e-05
1.42196e-05
1.20268e-05
9.65784e-06
7.19581e-06
4.73355e-06
2.45041e-06
1.25236e-06
3.2464e-05
2.74394e-05
2.22873e-05
1.88441e-05
1.77751e-05
1.82432e-05
1.90844e-05
1.96182e-05
1.95937e-05
1.89765e-05
1.78228e-05
1.62216e-05
1.42693e-05
1.20589e-05
9.67709e-06
7.20611e-06
4.73818e-06
2.45192e-06
1.25256e-06
3.20102e-05
2.70554e-05
2.20561e-05
1.88269e-05
1.79313e-05
1.84741e-05
1.9319e-05
1.98249e-05
1.9763e-05
1.91087e-05
1.79218e-05
1.62927e-05
1.4318e-05
1.20905e-05
9.69601e-06
7.21627e-06
4.74277e-06
2.45342e-06
1.25276e-06
3.15692e-05
2.66871e-05
2.18442e-05
1.88271e-05
1.80968e-05
1.87072e-05
1.95523e-05
2.00293e-05
1.993e-05
1.92387e-05
1.80191e-05
1.63626e-05
1.43659e-05
1.21215e-05
9.71463e-06
7.22629e-06
4.74732e-06
2.45493e-06
1.25296e-06
3.11414e-05
2.63347e-05
2.16515e-05
1.8844e-05
1.82709e-05
1.89419e-05
1.97841e-05
2.02312e-05
2.00945e-05
1.93667e-05
1.81148e-05
1.64313e-05
1.4413e-05
1.2152e-05
9.73296e-06
7.23617e-06
4.75182e-06
2.45643e-06
1.25317e-06
3.07265e-05
2.5998e-05
2.14776e-05
1.8877e-05
1.84527e-05
1.91781e-05
2.00144e-05
2.04308e-05
2.02567e-05
1.94927e-05
1.82088e-05
1.64988e-05
1.44593e-05
1.2182e-05
9.751e-06
7.24592e-06
4.75628e-06
2.45793e-06
1.25339e-06
3.03247e-05
2.56771e-05
2.13224e-05
1.89252e-05
1.86417e-05
1.94152e-05
2.02432e-05
2.0628e-05
2.04166e-05
1.96167e-05
1.83014e-05
1.65651e-05
1.45048e-05
1.22115e-05
9.76876e-06
7.25555e-06
4.7607e-06
2.45942e-06
1.25361e-06
2.9936e-05
2.53721e-05
2.11856e-05
1.89882e-05
1.88373e-05
1.96532e-05
2.04702e-05
2.08229e-05
2.05741e-05
1.97388e-05
1.83924e-05
1.66304e-05
1.45495e-05
1.22405e-05
9.78626e-06
7.26504e-06
4.76507e-06
2.46091e-06
1.25384e-06
2.95601e-05
2.50829e-05
2.10669e-05
1.9065e-05
1.90388e-05
1.98917e-05
2.06955e-05
2.10155e-05
2.07295e-05
1.98589e-05
1.8482e-05
1.66946e-05
1.45935e-05
1.22691e-05
9.80348e-06
7.2744e-06
4.7694e-06
2.4624e-06
1.25408e-06
2.91972e-05
2.48096e-05
2.0966e-05
1.91551e-05
1.92458e-05
2.01306e-05
2.09191e-05
2.12057e-05
2.08827e-05
1.99773e-05
1.85701e-05
1.67577e-05
1.46368e-05
1.22972e-05
9.82049e-06
7.28366e-06
4.77369e-06
2.46388e-06
1.25432e-06
2.88472e-05
2.45521e-05
2.08824e-05
1.92577e-05
1.94576e-05
2.03695e-05
2.11408e-05
2.13936e-05
2.10337e-05
2.00938e-05
1.86568e-05
1.68198e-05
1.46794e-05
1.23248e-05
9.83725e-06
7.2928e-06
4.77794e-06
2.46536e-06
1.25457e-06
2.85099e-05
2.43105e-05
2.0816e-05
1.93721e-05
1.96738e-05
2.06083e-05
2.13606e-05
2.15793e-05
2.11826e-05
2.02086e-05
1.87421e-05
1.68809e-05
1.47213e-05
1.23521e-05
9.85374e-06
7.30182e-06
4.78216e-06
2.46684e-06
1.25482e-06
2.81853e-05
2.40848e-05
2.07662e-05
1.94976e-05
1.9894e-05
2.08469e-05
2.15786e-05
2.17627e-05
2.13294e-05
2.03217e-05
1.88262e-05
1.69411e-05
1.47625e-05
1.23789e-05
9.86998e-06
7.31072e-06
4.78633e-06
2.46832e-06
1.25507e-06
2.78734e-05
2.38749e-05
2.07327e-05
1.96337e-05
2.01177e-05
2.1085e-05
2.17946e-05
2.19439e-05
2.14741e-05
2.04331e-05
1.89089e-05
1.70002e-05
1.48031e-05
1.24052e-05
9.88597e-06
7.3195e-06
4.79046e-06
2.46979e-06
1.25533e-06
2.75742e-05
2.36809e-05
2.0715e-05
1.97796e-05
2.03445e-05
2.13225e-05
2.20087e-05
2.21229e-05
2.16169e-05
2.05428e-05
1.89903e-05
1.70585e-05
1.4843e-05
1.24312e-05
9.90173e-06
7.32816e-06
4.79455e-06
2.47126e-06
1.2556e-06
2.72877e-05
2.35025e-05
2.07127e-05
1.99348e-05
2.0574e-05
2.15594e-05
2.22208e-05
2.22998e-05
2.17577e-05
2.06508e-05
1.90705e-05
1.71158e-05
1.48823e-05
1.24568e-05
9.91726e-06
7.33671e-06
4.79861e-06
2.47272e-06
1.25586e-06
2.70139e-05
2.33398e-05
2.07254e-05
2.00987e-05
2.0806e-05
2.17953e-05
2.24309e-05
2.24744e-05
2.18966e-05
2.07573e-05
1.91494e-05
1.71722e-05
1.49209e-05
1.24819e-05
9.93256e-06
7.34516e-06
4.80262e-06
2.47418e-06
1.25614e-06
2.6753e-05
2.31927e-05
2.07525e-05
2.02706e-05
2.104e-05
2.20304e-05
2.2639e-05
2.2647e-05
2.20335e-05
2.08623e-05
1.92271e-05
1.72278e-05
1.4959e-05
1.25067e-05
9.94765e-06
7.3535e-06
4.8066e-06
2.47564e-06
1.25641e-06
2.6505e-05
2.30611e-05
2.07937e-05
2.04501e-05
2.12758e-05
2.22644e-05
2.28451e-05
2.28174e-05
2.21686e-05
2.09657e-05
1.93037e-05
1.72825e-05
1.49965e-05
1.25312e-05
9.96253e-06
7.36174e-06
4.81054e-06
2.47708e-06
1.25669e-06
2.62699e-05
2.29449e-05
2.08483e-05
2.06366e-05
2.15132e-05
2.24972e-05
2.30493e-05
2.29857e-05
2.23018e-05
2.10676e-05
1.93791e-05
1.73363e-05
1.50335e-05
1.25552e-05
9.9772e-06
7.36988e-06
4.81445e-06
2.47853e-06
1.25697e-06
2.60477e-05
2.28439e-05
2.09159e-05
2.08295e-05
2.17517e-05
2.27289e-05
2.32514e-05
2.3152e-05
2.24332e-05
2.1168e-05
1.94534e-05
1.73894e-05
1.50698e-05
1.25789e-05
9.99167e-06
7.37792e-06
4.81832e-06
2.47997e-06
1.25726e-06
2.58386e-05
2.2758e-05
2.09961e-05
2.10285e-05
2.19913e-05
2.29593e-05
2.34515e-05
2.33163e-05
2.25629e-05
2.1267e-05
1.95266e-05
1.74416e-05
1.51056e-05
1.26023e-05
1.00059e-05
7.38586e-06
4.82215e-06
2.48141e-06
1.25755e-06
2.56426e-05
2.2687e-05
2.10882e-05
2.1233e-05
2.22317e-05
2.31883e-05
2.36496e-05
2.34785e-05
2.26908e-05
2.13646e-05
1.95987e-05
1.74931e-05
1.51409e-05
1.26253e-05
1.002e-05
7.39371e-06
4.82595e-06
2.48284e-06
1.25784e-06
2.54597e-05
2.26308e-05
2.11918e-05
2.14425e-05
2.24727e-05
2.34159e-05
2.38457e-05
2.36388e-05
2.28169e-05
2.14607e-05
1.96697e-05
1.75438e-05
1.51757e-05
1.2648e-05
1.00339e-05
7.40146e-06
4.82972e-06
2.48426e-06
1.25813e-06
2.52899e-05
2.2589e-05
2.13064e-05
2.16568e-05
2.27141e-05
2.3642e-05
2.40398e-05
2.37971e-05
2.29414e-05
2.15556e-05
1.97397e-05
1.75937e-05
1.52099e-05
1.26704e-05
1.00476e-05
7.40912e-06
4.83346e-06
2.48569e-06
1.25843e-06
2.51334e-05
2.25616e-05
2.14314e-05
2.18753e-05
2.29556e-05
2.38666e-05
2.42318e-05
2.39535e-05
2.30642e-05
2.1649e-05
1.98086e-05
1.76429e-05
1.52437e-05
1.26924e-05
1.00611e-05
7.41669e-06
4.83716e-06
2.4871e-06
1.25873e-06
2.49902e-05
2.25482e-05
2.15664e-05
2.20977e-05
2.31972e-05
2.40896e-05
2.44219e-05
2.41079e-05
2.31854e-05
2.17412e-05
1.98766e-05
1.76914e-05
1.52769e-05
1.27142e-05
1.00744e-05
7.42418e-06
4.84083e-06
2.48852e-06
1.25903e-06
2.48601e-05
2.25486e-05
2.17109e-05
2.23237e-05
2.34388e-05
2.4311e-05
2.461e-05
2.42605e-05
2.33049e-05
2.1832e-05
1.99436e-05
1.77391e-05
1.53097e-05
1.27356e-05
1.00876e-05
7.43157e-06
4.84446e-06
2.48992e-06
1.25934e-06
2.47434e-05
2.25625e-05
2.18643e-05
2.25529e-05
2.368e-05
2.45308e-05
2.47962e-05
2.44112e-05
2.34229e-05
2.19216e-05
2.00096e-05
1.77862e-05
1.5342e-05
1.27567e-05
1.01006e-05
7.43888e-06
4.84807e-06
2.49132e-06
1.25964e-06
2.464e-05
2.25897e-05
2.20263e-05
2.27849e-05
2.39209e-05
2.4749e-05
2.49803e-05
2.456e-05
2.35392e-05
2.20099e-05
2.00746e-05
1.78326e-05
1.53738e-05
1.27775e-05
1.01134e-05
7.4461e-06
4.85164e-06
2.49272e-06
1.25995e-06
2.45498e-05
2.26297e-05
2.21962e-05
2.30195e-05
2.41613e-05
2.49654e-05
2.51625e-05
2.4707e-05
2.3654e-05
2.2097e-05
2.01388e-05
1.78783e-05
1.54051e-05
1.2798e-05
1.0126e-05
7.45324e-06
4.85518e-06
2.49411e-06
1.26026e-06
2.44729e-05
2.26823e-05
2.23738e-05
2.32564e-05
2.4401e-05
2.51801e-05
2.53428e-05
2.48522e-05
2.37673e-05
2.21829e-05
2.0202e-05
1.79233e-05
1.54361e-05
1.28183e-05
1.01385e-05
7.46029e-06
4.85869e-06
2.49549e-06
1.26058e-06
2.44092e-05
2.27472e-05
2.25585e-05
2.34953e-05
2.46401e-05
2.5393e-05
2.55211e-05
2.49957e-05
2.38791e-05
2.22676e-05
2.02643e-05
1.79677e-05
1.54665e-05
1.28382e-05
1.01508e-05
7.46727e-06
4.86217e-06
2.49687e-06
1.26089e-06
2.43586e-05
2.2824e-05
2.27498e-05
2.3736e-05
2.48783e-05
2.56042e-05
2.56974e-05
2.51373e-05
2.39894e-05
2.23511e-05
2.03257e-05
1.80114e-05
1.54965e-05
1.28579e-05
1.01629e-05
7.47416e-06
4.86561e-06
2.49825e-06
1.26121e-06
2.43212e-05
2.29123e-05
2.29475e-05
2.39782e-05
2.51156e-05
2.58136e-05
2.58719e-05
2.52772e-05
2.40983e-05
2.24334e-05
2.03862e-05
1.80545e-05
1.55261e-05
1.28773e-05
1.01749e-05
7.48097e-06
4.86903e-06
2.49961e-06
1.26153e-06
2.42967e-05
2.30118e-05
2.3151e-05
2.42217e-05
2.53519e-05
2.60212e-05
2.60444e-05
2.54154e-05
2.42057e-05
2.25146e-05
2.04459e-05
1.8097e-05
1.55553e-05
1.28965e-05
1.01867e-05
7.4877e-06
4.87241e-06
2.50097e-06
1.26185e-06
2.42852e-05
2.3122e-05
2.336e-05
2.44663e-05
2.55871e-05
2.62269e-05
2.6215e-05
2.55519e-05
2.43117e-05
2.25947e-05
2.05047e-05
1.81389e-05
1.5584e-05
1.29153e-05
1.01984e-05
7.49436e-06
4.87577e-06
2.50233e-06
1.26217e-06
2.42865e-05
2.32427e-05
2.3574e-05
2.47118e-05
2.58212e-05
2.64309e-05
2.63838e-05
2.56866e-05
2.44162e-05
2.26736e-05
2.05626e-05
1.81802e-05
1.56124e-05
1.29339e-05
1.02099e-05
7.50093e-06
4.87909e-06
2.50368e-06
1.26249e-06
2.43004e-05
2.33735e-05
2.37928e-05
2.49579e-05
2.6054e-05
2.66329e-05
2.65507e-05
2.58197e-05
2.45194e-05
2.27515e-05
2.06198e-05
1.82209e-05
1.56403e-05
1.29522e-05
1.02213e-05
7.50743e-06
4.88238e-06
2.50502e-06
1.26282e-06
2.43269e-05
2.35138e-05
2.4016e-05
2.52046e-05
2.62856e-05
2.68332e-05
2.67156e-05
2.59511e-05
2.46212e-05
2.28283e-05
2.06761e-05
1.82609e-05
1.56678e-05
1.29703e-05
1.02325e-05
7.51385e-06
4.88565e-06
2.50636e-06
1.26315e-06
2.43658e-05
2.36635e-05
2.42431e-05
2.54516e-05
2.65159e-05
2.70316e-05
2.68788e-05
2.60809e-05
2.47216e-05
2.2904e-05
2.07317e-05
1.83005e-05
1.56949e-05
1.29882e-05
1.02436e-05
7.5202e-06
4.88888e-06
2.50769e-06
1.26347e-06
2.44169e-05
2.3822e-05
2.4474e-05
2.56988e-05
2.67447e-05
2.72281e-05
2.70401e-05
2.62091e-05
2.48207e-05
2.29786e-05
2.07864e-05
1.83394e-05
1.57217e-05
1.30057e-05