/*--------------------------------*- C++ -*----------------------------------*\
| =========                 |                                                 |
| \\      /  F ield         | OpenFOAM: The Open Source CFD Toolbox           |
|  \\    /   O peration     | Version:  2212                                  |
|   \\  /    A nd           | Website:  www.openfoam.com                      |
|    \\/     M anipulation  |                                                 |
\*---------------------------------------------------------------------------*/
FoamFile
{
    version     2.0;
    format      ascii;
    arch        "LSB;label=32;scalar=64";
    class       volScalarField;
    location    "100000";
    object      T;
}
// * * * * * * * * * * * * * * * * * * * * * * * * * * * * * * * * * * * * * //

dimensions      [0 0 0 1 0 0 0];

internalField   nonuniform List<scalar> 
200000
(
300
300
300
300
300
300
300
300
300
300
300
300
300
300
300
300.002
300.019
300.336
303.635
300
300
300
300
300
300
300
300
300
300
300
300
300
300.001
300.004
300.021
300.194
301.697
308.507
300
300
300
300
300
300
300
300
300
300
300
300.001
300.001
300.003
300.013
300.073
300.586
303.698
312.654
300
300
300
300
300
300
300
300
300
300
300.001
300.001
300.003
300.009
300.034
300.193
301.419
306.343
316.499
300
300
300
300
300
300
300
300
300
300.001
300.001
300.003
300.006
300.018
300.073
300.422
302.66
309.061
319.859
300
300
300
300
300
300
300
300
300.001
300.001
300.002
300.005
300.012
300.036
300.149
300.881
304.278
311.531
322.613
300
300
300
300
300
300
300
300.001
300.001
300.002
300.004
300.008
300.021
300.065
300.282
301.576
305.994
313.638
324.813
300
300
300
300
300
300
300
300.001
300.002
300.003
300.006
300.013
300.034
300.112
300.503
302.495
307.624
315.386
326.561
300
300
300
300
300
300
300.001
300.001
300.002
300.005
300.009
300.021
300.055
300.188
300.858
303.597
309.086
316.829
327.96
300
300
300
300
300
300.001
300.001
300.002
300.004
300.007
300.014
300.032
300.086
300.301
301.352
304.749
310.363
318.026
329.092
300
300
300
300
300.001
300.001
300.002
300.003
300.005
300.01
300.02
300.046
300.129
300.472
301.987
305.861
311.471
319.028
330.019
300
300
300
300
300.001
300.001
300.002
300.004
300.007
300.014
300.028
300.067
300.192
300.722
302.742
306.892
312.437
319.878
330.793
300
300
300
300.001
300.001
300.002
300.003
300.005
300.01
300.018
300.039
300.094
300.28
301.057
303.549
307.829
313.286
320.609
331.448
300
300
300
300.001
300.001
300.002
300.004
300.007
300.013
300.025
300.053
300.13
300.402
301.481
304.357
308.675
314.037
321.248
332.013
300
300
300.001
300.001
300.002
300.003
300.005
300.009
300.017
300.033
300.07
300.179
300.57
301.99
305.137
309.441
314.708
321.816
332.512
300
300
300.001
300.001
300.002
300.004
300.007
300.012
300.021
300.042
300.093
300.243
300.79
302.553
305.874
310.138
315.313
322.326
332.958
300
300.001
300.001
300.002
300.003
300.005
300.008
300.015
300.027
300.054
300.121
300.326
301.061
303.14
306.561
310.774
315.863
322.79
333.362
300.001
300.001
300.001
300.002
300.004
300.006
300.01
300.018
300.034
300.069
300.157
300.436
301.394
303.732
307.201
311.358
316.367
323.215
333.733
300.001
300.001
300.002
300.003
300.004
300.007
300.013
300.023
300.043
300.087
300.203
300.575
301.772
304.312
307.796
311.895
316.832
323.61
334.077
300.001
300.001
300.002
300.003
300.005
300.009
300.016
300.028
300.052
300.108
300.259
300.746
302.183
304.873
308.351
312.394
317.264
323.977
334.397
300.001
300.002
300.002
300.004
300.007
300.011
300.019
300.034
300.064
300.134
300.33
300.952
302.614
305.41
308.87
312.858
317.667
324.321
334.697
300.001
300.002
300.003
300.005
300.008
300.013
300.023
300.041
300.078
300.166
300.416
301.194
303.057
305.92
309.356
313.292
318.044
324.645
334.979
300.002
300.002
300.004
300.006
300.009
300.016
300.027
300.049
300.094
300.204
300.521
301.465
303.5
306.406
309.812
313.699
318.4
324.951
335.246
300.002
300.003
300.004
300.007
300.011
300.019
300.032
300.058
300.113
300.25
300.646
301.761
303.938
306.867
310.242
314.083
318.736
325.241
335.499
300.002
300.003
300.005
300.008
300.013
300.022
300.038
300.069
300.135
300.304
300.794
302.077
304.366
307.305
310.648
314.445
319.054
325.516
335.739
300.003
300.004
300.006
300.009
300.015
300.026
300.044
300.081
300.161
300.368
300.963
302.406
304.783
307.721
311.033
314.789
319.357
325.778
335.968
300.003
300.004
300.007
300.011
300.018
300.03
300.051
300.094
300.191
300.444
301.152
302.744
305.186
308.118
311.398
315.116
319.645
326.029
336.187
300.004
300.005
300.008
300.013
300.02
300.034
300.059
300.11
300.226
300.532
301.36
303.085
305.575
308.496
311.745
315.428
319.921
326.269
336.396
300.004
300.006
300.009
300.014
300.023
300.039
300.069
300.128
300.266
300.633
301.585
303.426
305.95
308.858
312.076
315.725
320.185
326.499
336.596
300.005
300.007
300.01
300.016
300.027
300.045
300.079
300.148
300.312
300.748
301.825
303.765
306.311
309.203
312.393
316.01
320.437
326.72
336.789
300.006
300.008
300.012
300.019
300.03
300.051
300.09
300.171
300.365
300.876
302.075
304.099
306.659
309.534
312.696
316.283
320.68
326.933
336.974
300.006
300.009
300.014
300.021
300.034
300.058
300.103
300.197
300.426
301.018
302.334
304.426
306.995
309.851
312.986
316.545
320.914
327.138
337.152
300.007
300.01
300.015
300.024
300.039
300.065
300.117
300.226
300.494
301.173
302.599
304.747
307.319
310.156
313.265
316.797
321.139
327.336
337.324
300.008
300.011
300.017
300.027
300.044
300.074
300.132
300.259
300.57
301.34
302.868
305.06
307.631
310.45
313.534
317.039
321.356
327.527
337.49
300.009
300.013
300.019
300.03
300.049
300.083
300.149
300.296
300.655
301.519
303.138
305.365
307.932
310.732
313.793
317.274
321.566
327.711
337.65
300.01
300.014
300.021
300.034
300.055
300.093
300.168
300.337
300.749
301.707
303.408
305.662
308.223
311.004
314.042
317.5
321.769
327.89
337.805
300.012
300.016
300.024
300.037
300.061
300.104
300.19
300.382
300.852
301.904
303.677
305.951
308.505
311.267
314.283
317.718
321.965
328.063
337.955
300.013
300.018
300.026
300.041
300.067
300.116
300.213
300.433
300.965
302.107
303.943
306.232
308.777
311.521
314.516
317.93
322.156
328.231
338.1
300.014
300.02
300.029
300.046
300.075
300.128
300.238
300.489
301.086
302.316
304.205
306.506
309.041
311.767
314.742
318.135
322.341
328.394
338.241
300.016
300.022
300.032
300.05
300.082
300.143
300.266
300.55
301.216
302.529
304.464
306.772
309.296
312.005
314.96
318.334
322.52
328.553
338.378
300.017
300.024
300.035
300.055
300.091
300.158
300.297
300.617
301.353
302.746
304.719
307.031
309.544
312.235
315.172
318.528
322.695
328.707
338.51
300.019
300.026
300.039
300.061
300.1
300.174
300.331
300.69
301.499
302.963
304.97
307.284
309.785
312.459
315.378
318.716
322.864
328.857
338.64
300.021
300.029
300.043
300.067
300.11
300.192
300.368
300.77
301.651
303.182
305.215
307.529
310.018
312.677
315.578
318.898
323.03
329.003
338.765
300.023
300.031
300.046
300.073
300.12
300.212
300.408
300.855
301.81
303.401
305.457
307.769
310.245
312.888
315.773
319.076
323.19
329.146
338.888
300.025
300.034
300.051
300.079
300.132
300.233
300.451
300.947
301.973
303.619
305.693
308.002
310.466
313.094
315.962
319.249
323.347
329.285
339.007
300.027
300.037
300.055
300.086
300.144
300.256
300.499
301.045
302.142
303.836
305.925
308.229
310.681
313.294
316.147
319.418
323.5
329.42
339.123
300.029
300.04
300.06
300.094
300.157
300.281
300.55
301.15
302.314
304.051
306.152
308.451
310.891
313.489
316.327
319.583
323.65
329.553
339.236
300.032
300.044
300.065
300.102
300.171
300.307
300.605
301.26
302.489
304.265
306.374
308.667
311.095
313.679
316.502
319.744
323.796
329.682
339.347
300.034
300.047
300.07
300.11
300.185
300.336
300.664
301.375
302.666
304.476
306.592
308.878
311.294
313.864
316.673
319.901
323.939
329.809
339.455
300.037
300.051
300.076
300.119
300.201
300.367
300.728
301.496
302.846
304.684
306.805
309.085
311.489
314.045
316.841
320.055
324.078
329.932
339.56
300.04
300.055
300.081
300.129
300.218
300.4
300.796
301.622
303.026
304.89
307.014
309.286
311.678
314.222
317.004
320.205
324.215
330.053
339.663
300.043
300.059
300.088
300.139
300.236
300.436
300.869
301.753
303.207
305.093
307.219
309.483
311.864
314.394
317.164
320.352
324.349
330.172
339.764
300.046
300.063
300.094
300.15
300.256
300.474
300.946
301.887
303.388
305.293
307.419
309.676
312.045
314.563
317.32
320.496
324.48
330.288
339.863
300.05
300.068
300.101
300.161
300.277
300.515
301.027
302.025
303.569
305.49
307.616
309.864
312.222
314.728
317.473
320.637
324.608
330.402
339.96
300.053
300.073
300.108
300.174
300.299
300.559
301.113
302.166
303.75
305.685
307.809
310.049
312.396
314.89
317.623
320.775
324.734
330.514
340.055
300.057
300.078
300.116
300.186
300.322
300.605
301.203
302.311
303.93
305.876
307.998
310.229
312.566
315.048
317.77
320.911
324.857
330.623
340.147
300.061
300.083
300.124
300.2
300.347
300.655
301.297
302.457
304.108
306.064
308.183
310.406
312.732
315.204
317.914
321.044
324.978
330.73
340.238
300.065
300.089
300.133
300.214
300.374
300.707
301.395
302.605
304.286
306.25
308.365
310.58
312.895
315.356
318.055
321.174
325.097
330.836
340.327
300.069
300.095
300.142
300.229
300.402
300.763
301.497
302.755
304.462
306.433
308.544
310.75
313.055
315.505
318.194
321.302
325.214
330.939
340.415
300.074
300.101
300.151
300.246
300.432
300.822
301.603
302.906
304.637
306.612
308.719
310.916
313.212
315.651
318.33
321.428
325.329
331.041
340.5
300.078
300.107
300.161
300.263
300.464
300.884
301.712
303.058
304.81
306.789
308.891
311.08
313.365
315.795
318.464
321.551
325.442
331.141
340.585
300.083
300.114
300.172
300.28
300.498
300.95
301.825
303.211
304.981
306.963
309.06
311.241
313.516
315.936
318.595
321.672
325.552
331.239
340.667
300.088
300.121
300.182
300.299
300.534
301.018
301.94
303.364
305.151
307.135
309.227
311.398
313.665
316.075
318.724
321.792
325.662
331.336
340.748
300.093
300.128
300.194
300.319
300.572
301.09
302.058
303.517
305.319
307.304
309.39
311.553
313.81
316.211
318.851
321.909
325.769
331.431
340.828
300.099
300.136
300.206
300.34
300.612
301.165
302.178
303.67
305.484
307.47
309.55
311.706
313.954
316.345
318.976
322.025
325.874
331.525
340.907
300.104
300.144
300.219
300.363
300.654
301.244
302.301
303.823
305.649
307.634
309.708
311.855
314.094
316.477
319.098
322.138
325.978
331.617
340.984
300.11
300.152
300.232
300.386
300.698
301.325
302.425
303.976
305.811
307.795
309.863
312.002
314.233
316.606
319.219
322.25
326.081
331.707
341.06
300.117
300.161
300.246
300.411
300.745
301.41
302.551
304.127
305.971
307.954
310.016
312.147
314.369
316.734
319.338
322.36
326.181
331.797
341.134
300.123
300.17
300.26
300.437
300.794
301.497
302.678
304.278
306.13
308.11
310.166
312.29
314.503
316.859
319.455
322.469
326.281
331.885
341.208
300.13
300.179
300.276
300.464
300.846
301.587
302.807
304.429
306.286
308.264
310.314
312.43
314.635
316.983
319.57
322.576
326.379
331.971
341.28
300.137
300.189
300.292
300.493
300.9
301.68
302.937
304.578
306.441
308.416
310.46
312.568
314.764
317.105
319.684
322.681
326.475
332.057
341.352
300.144
300.2
300.309
300.523
300.956
301.775
303.067
304.727
306.594
308.566
310.603
312.703
314.892
317.224
319.796
322.785
326.57
332.141
341.422
300.151
300.21
300.326
300.555
301.015
301.873
303.198
304.874
306.745
308.714
310.745
312.837
315.018
317.343
319.906
322.888
326.664
332.224
341.491
300.159
300.222
300.345
300.588
301.076
301.973
303.33
305.021
306.894
308.859
310.884
312.969
315.142
317.459
320.015
322.989
326.757
332.306
341.559
300.167
300.233
300.364
300.623
301.14
302.075
303.462
305.166
307.041
309.003
311.021
313.099
315.265
317.574
320.123
323.088
326.848
332.387
341.626
300.176
300.246
300.384
300.66
301.206
302.179
303.594
305.31
307.187
309.145
311.157
313.227
315.386
317.687
320.229
323.187
326.938
332.467
341.693
300.184
300.258
300.405
300.698
301.275
302.284
303.726
305.453
307.331
309.284
311.29
313.353
315.505
317.799
320.333
323.284
327.027
332.546
341.758
300.193
300.272
300.427
300.739
301.346
302.391
303.858
305.595
307.473
309.422
311.422
313.478
315.622
317.909
320.437
323.38
327.115
332.624
341.822
300.203
300.285
300.451
300.78
301.42
302.5
303.989
305.736
307.613
309.558
311.551
313.601
315.738
318.018
320.538
323.475
327.202
332.7
341.886
300.213
300.3
300.475
300.824
301.496
302.61
304.121
305.875
307.752
309.693
311.68
313.722
315.852
318.126
320.639
323.568
327.288
332.776
341.949
300.223
300.315
300.5
300.87
301.573
302.721
304.252
306.013
307.889
309.825
311.806
313.842
315.965
318.232
320.738
323.661
327.372
332.851
342.011
300.233
300.33
300.527
300.917
301.654
302.834
304.383
306.15
308.025
309.956
311.931
313.96
316.076
318.337
320.837
323.752
327.456
332.926
342.072
300.244
300.347
300.554
300.967
301.736
302.947
304.514
306.286
308.159
310.086
312.054
314.077
316.187
318.44
320.934
323.842
327.539
332.999
342.133
300.256
300.364
300.583
301.018
301.82
303.06
304.643
306.42
308.292
310.213
312.176
314.192
316.295
318.543
321.03
323.932
327.621
333.071
342.192
300.267
300.381
300.613
301.072
301.906
303.175
304.773
306.553
308.423
310.34
312.296
314.306
316.403
318.644
321.124
324.02
327.702
333.143
342.251
300.28
300.4
300.644
301.127
301.994
303.29
304.901
306.685
308.552
310.464
312.415
314.418
316.509
318.744
321.218
324.107
327.782
333.214
342.309
300.292
300.419
300.677
301.184
302.083
303.405
305.029
306.816
308.681
310.588
312.532
314.529
316.614
318.842
321.311
324.194
327.861
333.284
342.367
300.305
300.439
300.711
301.244
302.174
303.521
305.157
306.945
308.807
310.71
312.648
314.639
316.718
318.94
321.403
324.279
327.94
333.353
342.424
300.319
300.459
300.747
301.305
302.267
303.637
305.283
307.074
308.933
310.83
312.763
314.748
316.82
319.037
321.493
324.364
328.017
333.422
342.481
300.333
300.481
300.784
301.368
302.361
303.753
305.409
307.201
309.057
310.949
312.876
314.855
316.922
319.133
321.583
324.447
328.094
333.49
342.536
300.348
300.503
300.822
301.433
302.456
303.87
305.534
307.327
309.18
311.067
312.988
314.962
317.022
319.227
321.672
324.53
328.17
333.557
342.592
300.363
300.527
300.862
301.5
302.553
303.986
305.659
307.452
309.301
311.184
313.099
315.067
317.121
319.321
321.76
324.612
328.246
333.624
342.646
300.379
300.551
300.903
301.568
302.651
304.102
305.782
307.575
309.422
311.299
313.209
315.171
317.22
319.414
321.847
324.693
328.32
333.69
342.701
300.395
300.576
300.946
301.639
302.749
304.219
305.905
307.698
309.541
311.413
313.317
315.273
317.317
319.505
321.933
324.774
328.394
333.755
342.754
300.412
300.602
300.991
301.711
302.849
304.335
306.027
307.819
309.659
311.526
313.425
315.375
317.413
319.596
322.019
324.854
328.467
333.82
342.807
300.43
300.63
301.037
301.785
302.949
304.451
306.148
307.94
309.775
311.637
313.531
315.476
317.509
319.686
322.103
324.933
328.54
333.884
342.86
300.448
300.658
301.084
301.86
303.05
304.566
306.268
308.059
309.891
311.748
313.636
315.576
317.603
319.775
322.187
325.011
328.612
333.948
342.912
300.467
300.687
301.134
301.938
303.152
304.682
306.388
308.177
310.005
311.857
313.74
315.675
317.697
319.864
322.27
325.088
328.683
334.011
342.963
300.486
300.718
301.185
302.016
303.255
304.797
306.507
308.295
310.119
311.966
313.843
315.772
317.789
319.951
322.352
325.165
328.754
334.074
343.014
300.507
300.75
301.237
302.096
303.358
304.911
306.624
308.411
310.231
312.073
313.945
315.869
317.881
320.038
322.434
325.241
328.824
334.136
343.065
300.528
300.783
301.291
302.178
303.461
305.026
306.741
308.526
310.342
312.18
314.047
315.965
317.972
320.124
322.515
325.317
328.893
334.197
343.115
300.55
300.817
301.347
302.261
303.565
305.14
306.858
308.64
310.452
312.285
314.147
316.06
318.062
320.209
322.595
325.392
328.962
334.258
343.164
300.573
300.852
301.405
302.345
303.669
305.253
306.973
308.754
310.561
312.389
314.246
316.155
318.151
320.293
322.674
325.466
329.031
334.318
343.214
300.596
300.889
301.464
302.43
303.774
305.366
307.088
308.866
310.67
312.493
314.344
316.248
318.24
320.377
322.753
325.54
329.099
334.378
343.263
300.621
300.927
301.524
302.517
303.878
305.479
307.201
308.977
310.777
312.595
314.442
316.34
318.327
320.46
322.831
325.613
329.166
334.438
343.311
300.646
300.966
301.587
302.604
303.983
305.591
307.314
309.088
310.883
312.697
314.539
316.432
318.414
320.542
322.909
325.685
329.233
334.497
343.359
300.672
301.006
301.65
302.693
304.088
305.703
307.427
309.197
310.989
312.797
314.634
316.523
318.501
320.624
322.986
325.757
329.299
334.555
343.407
300.699
301.048
301.716
302.782
304.193
305.814
307.538
309.306
311.093
312.897
314.729
316.613
318.586
320.705
323.062
325.829
329.365
334.614
343.454
300.727
301.092
301.783
302.873
304.298
305.925
307.649
309.414
311.197
312.996
314.823
316.703
318.671
320.785
323.138
325.9
329.43
334.671
343.501
300.757
301.136
301.851
302.964
304.403
306.035
307.759
309.521
311.299
313.094
314.917
316.792
318.755
320.865
323.213
325.97
329.495
334.729
343.547
300.787
301.183
301.921
303.056
304.508
306.145
307.868
309.627
311.401
313.191
315.009
316.88
318.839
320.944
323.288
326.04
329.559
334.786
343.594
300.818
301.23
301.992
303.149
304.613
306.254
307.976
309.732
311.502
313.288
315.101
316.967
318.922
321.022
323.362
326.109
329.623
334.842
343.639
300.851
301.279
302.064
303.242
304.718
306.363
308.084
309.836
311.603
313.383
315.192
317.053
319.004
321.1
323.435
326.178
329.686
334.898
343.685
300.884
301.33
302.138
303.336
304.823
306.471
308.191
309.94
311.702
313.478
315.283
317.139
319.085
321.177
323.508
326.247
329.749
334.954
343.73
300.919
301.382
302.213
303.43
304.928
306.578
308.297
310.043
311.801
313.573
315.373
317.225
319.166
321.254
323.581
326.315
329.812
335.009
343.775
300.955
301.435
302.29
303.525
305.032
306.685
308.403
310.145
311.899
313.666
315.462
317.309
319.247
321.331
323.653
326.382
329.874
335.065
343.82
300.992
301.49
302.367
303.621
305.137
306.792
308.508
310.247
311.996
313.759
315.55
317.394
319.327
321.406
323.724
326.449
329.936
335.119
343.864
301.03
301.547
302.446
303.717
305.241
306.898
308.612
310.347
312.092
313.851
315.638
317.477
319.406
321.482
323.796
326.516
329.997
335.174
343.908
301.07
301.605
302.526
303.813
305.345
307.003
308.715
310.447
312.188
313.943
315.725
317.56
319.485
321.556
323.866
326.582
330.059
335.228
343.952
301.111
301.664
302.607
303.909
305.448
307.108
308.818
310.547
312.283
314.033
315.811
317.642
319.563
321.631
323.936
326.648
330.119
335.281
343.996
301.153
301.725
302.689
304.006
305.552
307.212
308.92
310.645
312.378
314.123
315.897
317.724
319.641
321.704
324.006
326.713
330.18
335.335
344.039
301.197
301.787
302.772
304.103
305.655
307.316
309.022
310.743
312.472
314.213
315.982
317.805
319.718
321.778
324.075
326.778
330.24
335.388
344.082
301.242
301.851
302.856
304.201
305.758
307.419
309.123
310.84
312.565
314.302
316.067
317.886
319.795
321.85
324.144
326.843
330.299
335.441
344.125
301.288
301.916
302.94
304.298
305.86
307.522
309.223
310.937
312.657
314.39
316.151
317.966
319.871
321.923
324.213
326.907
330.359
335.493
344.167
301.336
301.982
303.026
304.396
305.963
307.624
309.323
311.033
312.749
314.478
316.235
318.046
319.947
321.995
324.281
326.971
330.418
335.546
344.21
301.385
302.05
303.112
304.494
306.065
307.726
309.422
311.128
312.84
314.565
316.318
318.125
320.022
322.066
324.348
327.034
330.476
335.598
344.252
301.436
302.119
303.2
304.592
306.167
307.827
309.52
311.223
312.931
314.651
316.4
318.203
320.097
322.137
324.416
327.098
330.535
335.649
344.293
301.488
302.19
303.287
304.69
306.268
307.928
309.618
311.317
313.021
314.737
316.482
318.282
320.171
322.208
324.483
327.161
330.593
335.701
344.335
301.542
302.261
303.376
304.788
306.369
308.028
309.715
311.411
313.111
314.823
316.564
318.359
320.245
322.279
324.549
327.223
330.651
335.752
344.377
301.597
302.335
303.465
304.886
306.47
308.128
309.812
311.504
313.199
314.908
316.645
318.436
320.319
322.348
324.616
327.285
330.708
335.803
344.418
301.654
302.409
303.555
304.984
306.571
308.227
309.908
311.596
313.288
314.992
316.726
318.513
320.392
322.418
324.681
327.347
330.765
335.854
344.459
301.712
302.484
303.646
305.083
306.671
308.326
310.004
311.688
313.376
315.076
316.806
318.59
320.465
322.487
324.747
327.409
330.822
335.904
344.5
301.772
302.561
303.737
305.181
306.771
308.424
310.099
311.779
313.463
315.159
316.885
318.666
320.537
322.556
324.812
327.47
330.879
335.955
344.541
301.833
302.639
303.828
305.279
306.87
308.522
310.194
311.87
313.55
315.242
316.964
318.741
320.609
322.625
324.877
327.531
330.935
336.005
344.581
301.896
302.718
303.92
305.377
306.969
308.619
310.288
311.96
313.636
315.325
317.043
318.816
320.681
322.693
324.942
327.592
330.992
336.055
344.622
301.961
302.798
304.013
305.476
307.068
308.716
310.382
312.05
313.722
315.407
317.121
318.891
320.752
322.76
325.006
327.653
331.048
336.104
344.662
302.027
302.88
304.105
305.574
307.167
308.813
310.475
312.139
313.808
315.488
317.199
318.965
320.823
322.828
325.07
327.713
331.103
336.154
344.702
302.094
302.962
304.199
305.672
307.265
308.909
310.567
312.228
313.892
315.569
317.277
319.039
320.894
322.895
325.134
327.773
331.159
336.203
344.742
302.163
303.045
304.292
305.77
307.363
309.004
310.659
312.317
313.977
315.65
317.354
319.113
320.964
322.962
325.197
327.832
331.214
336.252
344.782
302.234
303.129
304.386
305.867
307.461
309.099
310.751
312.405
314.061
315.73
317.43
319.186
321.034
323.029
325.26
327.892
331.269
336.301
344.821
302.306
303.214
304.481
305.965
307.558
309.194
310.842
312.492
314.144
315.81
317.507
319.259
321.103
323.095
325.323
327.951
331.324
336.35
344.861
302.379
303.301
304.575
306.063
307.655
309.288
310.933
312.579
314.228
315.89
317.582
319.331
321.172
323.161
325.386
328.01
331.379
336.399
344.9
302.454
303.388
304.67
306.16
307.752
309.382
311.024
312.665
314.31
315.969
317.658
319.403
321.241
323.226
325.448
328.069
331.433
336.447
344.94
302.53
303.475
304.765
306.258
307.848
309.476
311.113
312.752
314.393
316.047
317.733
319.475
321.31
323.292
325.51
328.128
331.488
336.496
344.979
302.608
303.564
304.861
306.355
307.944
309.569
311.203
312.837
314.475
316.126
317.808
319.547
321.378
323.357
325.572
328.186
331.542
336.544
345.018
302.687
303.654
304.957
306.453
308.04
309.662
311.292
312.923
314.556
316.204
317.883
319.618
321.446
323.422
325.634
328.244
331.596
336.592
345.057
302.768
303.744
305.053
306.55
308.135
309.754
311.381
313.007
314.637
316.281
317.957
319.689
321.514
323.487
325.695
328.302
331.65
336.64
345.096
302.849
303.835
305.149
306.647
308.23
309.846
311.469
313.092
314.718
316.358
318.031
319.76
321.582
323.551
325.757
328.36
331.703
336.687
345.134
302.933
303.927
305.245
306.744
308.325
309.938
311.557
313.176
314.799
316.435
318.104
319.83
321.649
323.615
325.818
328.417
331.757
336.735
345.173
303.017
304.019
305.342
306.84
308.42
310.029
311.645
313.26
314.879
316.512
318.177
319.9
321.716
323.679
325.878
328.475
331.81
336.783
345.212
303.103
304.112
305.438
306.937
308.514
310.12
311.732
313.343
314.958
316.588
318.25
319.97
321.783
323.743
325.939
328.532
331.863
336.83
345.25
303.19
304.206
305.535
307.033
308.608
310.211
311.819
313.426
315.038
316.664
318.323
320.039
321.849
323.806
326
328.589
331.916
336.877
345.289
303.278
304.3
305.632
307.13
308.702
310.301
311.905
313.509
315.117
316.74
318.395
320.109
321.915
323.87
326.06
328.646
331.969
336.924
345.327
303.367
304.395
305.729
307.226
308.796
310.391
311.991
313.591
315.196
316.815
318.467
320.178
321.981
323.933
326.12
328.703
332.022
336.972
345.365
303.458
304.491
305.827
307.322
308.889
310.481
312.077
313.673
315.274
316.89
318.539
320.246
322.047
323.996
326.18
328.759
332.074
337.019
345.404
303.549
304.587
305.924
307.418
308.982
310.57
312.163
313.755
315.352
316.965
318.611
320.315
322.113
324.058
326.239
328.816
332.127
337.066
345.442
303.642
304.683
306.021
307.514
309.075
310.659
312.248
313.837
315.43
317.039
318.682
320.383
322.178
324.121
326.299
328.872
332.179
337.112
345.48
303.736
304.78
306.119
307.61
309.167
310.748
312.333
313.918
315.507
317.113
318.753
320.451
322.243
324.183
326.358
328.928
332.232
337.159
345.518
303.83
304.878
306.217
307.705
309.259
310.836
312.417
313.999
315.585
317.187
318.824
320.519
322.308
324.246
326.418
328.984
332.284
337.206
345.556
303.926
304.976
306.315
307.801
309.352
310.925
312.502
314.079
315.662
317.261
318.895
320.587
322.373
324.308
326.477
329.04
332.336
337.253
345.594
304.023
305.075
306.413
307.896
309.443
311.012
312.586
314.159
315.739
317.335
318.965
320.654
322.438
324.369
326.536
329.096
332.388
337.299
345.632
304.12
305.174
306.511
307.991
309.535
311.1
312.669
314.239
315.815
317.408
319.035
320.722
322.502
324.431
326.595
329.152
332.44
337.346
345.67
304.219
305.273
306.609
308.087
309.626
311.187
312.753
314.319
315.891
317.481
319.105
320.789
322.567
324.493
326.653
329.207
332.492
337.392
345.708
304.318
305.373
306.707
308.182
309.718
311.275
312.836
314.399
315.967
317.554
319.175
320.856
322.631
324.554
326.712
329.263
332.544
337.439
345.746
304.418
305.473
306.805
308.276
309.809
311.362
312.919
314.478
316.043
317.626
319.244
320.922
322.695
324.615
326.771
329.318
332.595
337.485
345.784
304.519
305.573
306.903
308.371
309.899
311.448
313.002
314.557
316.119
317.699
319.314
320.989
322.759
324.677
326.829
329.374
332.647
337.531
345.822
304.62
305.674
307.002
308.466
309.99
311.535
313.084
314.636
316.194
317.771
319.383
321.055
322.823
324.738
326.887
329.429
332.699
337.578
345.86
304.722
305.775
307.1
308.561
310.08
311.621
313.166
314.714
316.269
317.843
319.452
321.122
322.886
324.799
326.945
329.484
332.75
337.624
345.898
304.825
305.877
307.198
308.655
310.171
311.707
313.249
314.792
316.344
317.914
319.521
321.188
322.95
324.859
327.004
329.539
332.802
337.67
345.936
304.929
305.979
307.297
308.749
310.261
311.793
313.33
314.871
316.419
317.986
319.59
321.254
323.013
324.92
327.062
329.595
332.853
337.717
345.975
305.033
306.081
307.395
308.844
310.35
311.878
313.412
314.948
316.493
318.057
319.658
321.319
323.076
324.981
327.12
329.65
332.905
337.763
346.013
305.137
306.183
307.494
308.938
310.44
311.964
313.493
315.026
316.568
318.129
319.727
321.385
323.139
325.041
327.178
329.705
332.956
337.809
346.051
305.243
306.285
307.592
309.032
310.53
312.049
313.575
315.104
316.642
318.2
319.795
321.451
323.202
325.102
327.235
329.759
333.007
337.856
346.089
305.348
306.388
307.691
309.126
310.619
312.134
313.656
315.181
316.716
318.271
319.863
321.516
323.265
325.162
327.293
329.814
333.059
337.902
346.127
305.454
306.491
307.79
309.22
310.708
312.219
313.736
315.258
316.79
318.342
319.931
321.582
323.328
325.223
327.351
329.869
333.11
337.948
346.165
305.561
306.594
307.888
309.314
310.797
312.304
313.817
315.335
316.863
318.412
319.999
321.647
323.391
325.283
327.409
329.924
333.162
337.995
346.204
305.668
306.697
307.987
309.407
310.886
312.388
313.898
315.412
316.937
318.483
320.067
321.712
323.454
325.343
327.466
329.979
333.213
338.041
346.242
305.775
306.801
308.085
309.501
310.975
312.472
313.978
315.489
317.01
318.553
320.134
321.777
323.516
325.403
327.524
330.034
333.264
338.088
346.28
305.883
306.904
308.184
309.594
311.064
312.557
314.058
315.565
317.084
318.624
320.202
321.842
323.579
325.463
327.582
330.089
333.316
338.134
346.319
305.991
307.008
308.283
309.688
311.152
312.641
314.138
315.642
317.157
318.694
320.269
321.907
323.641
325.523
327.639
330.143
333.367
338.181
346.357
306.099
307.112
308.381
309.781
311.241
312.725
314.218
315.718
317.23
318.764
320.337
321.972
323.704
325.584
327.697
330.198
333.419
338.227
346.396
306.207
307.216
308.48
309.874
311.329
312.808
314.298
315.794
317.303
318.834
320.404
322.037
323.766
325.644
327.754
330.253
333.47
338.274
346.435
306.316
307.32
308.578
309.967
311.417
312.892
314.377
315.87
317.376
318.904
320.471
322.101
323.828
325.704
327.812
330.308
333.522
338.321
346.474
306.425
307.424
308.677
310.06
311.505
312.976
314.457
315.946
317.448
318.974
320.538
322.166
323.891
325.763
327.869
330.363
333.573
338.367
346.512
306.534
307.528
308.775
310.153
311.593
313.059
314.536
316.022
317.521
319.043
320.605
322.231
323.953
325.823
327.927
330.418
333.625
338.414
346.551
306.643
307.632
308.874
310.246
311.681
313.142
314.616
316.098
317.593
319.113
320.672
322.295
324.015
325.883
327.984
330.473
333.677
338.461
346.59
306.753
307.736
308.972
310.339
311.769
313.225
314.695
316.173
317.666
319.182
320.739
322.36
324.077
325.943
328.042
330.528
333.728
338.508
346.63
306.862
307.841
309.07
310.432
311.856
313.308
314.774
316.249
317.738
319.252
320.806
322.424
324.14
326.003
328.1
330.582
333.78
338.555
346.669
306.971
307.945
309.169
310.524
311.944
313.391
314.853
316.324
317.81
319.321
320.873
322.489
324.202
326.063
328.157
330.638
333.832
338.602
346.708
307.081
308.049
309.267
310.617
312.031
313.474
314.931
316.399
317.883
319.391
320.94
322.553
324.264
326.123
328.215
330.693
333.884
338.65
346.748
307.191
308.153
309.365
310.709
312.118
313.557
315.01
316.475
317.955
319.46
321.007
322.618
324.326
326.183
328.273
330.748
333.936
338.697
346.788
307.3
308.257
309.463
310.802
312.205
313.639
315.089
316.55
318.027
319.529
321.074
322.682
324.388
326.243
328.33
330.803
333.988
338.744
346.827
307.41
308.361
309.561
310.894
312.292
313.722
315.167
316.625
318.099
319.599
321.14
322.747
324.451
326.303
328.388
330.858
334.04
338.792
346.867
307.519
308.465
309.659
310.986
312.379
313.804
315.246
316.7
318.171
319.668
321.207
322.811
324.513
326.363
328.446
330.913
334.092
338.84
346.907
307.629
308.569
309.757
311.078
312.466
313.887
315.324
316.775
318.243
319.737
321.274
322.876
324.575
326.423
328.504
330.969
334.145
338.887
346.947
307.738
308.673
309.855
311.17
312.553
313.969
315.403
316.85
318.314
319.806
321.341
322.94
324.637
326.484
328.562
331.024
334.197
338.935
346.988
307.847
308.777
309.952
311.262
312.64
314.051
315.481
316.925
318.386
319.875
321.407
323.004
324.7
326.544
328.62
331.08