/*--------------------------------*- C++ -*----------------------------------*\
| =========                 |                                                 |
| \\      /  F ield         | OpenFOAM: The Open Source CFD Toolbox           |
|  \\    /   O peration     | Version:  2212                                  |
|   \\  /    A nd           | Website:  www.openfoam.com                      |
|    \\/     M anipulation  |                                                 |
\*---------------------------------------------------------------------------*/
FoamFile
{
    version     2.0;
    format      ascii;
    arch        "LSB;label=32;scalar=64";
    class       volScalarField;
    location    "10000";
    object      epsilon;
}
// * * * * * * * * * * * * * * * * * * * * * * * * * * * * * * * * * * * * * //

dimensions      [0 2 -3 0 0 0 0];

internalField   nonuniform List<scalar> 
200000
(
0.00753091
0.00753353
0.00753677
0.00754182
0.00755286
0.00757424
0.00761753
0.00770932
0.00790123
0.00829478
0.00909696
0.0107724
0.0145579
0.0247049
0.0620325
0.270047
1.90412
20.4241
111.348
0.00753462
0.0075407
0.00755283
0.00757714
0.00762796
0.00773733
0.00796082
0.00839393
0.00920239
0.0106886
0.013465
0.0189568
0.0311071
0.0636294
0.174068
0.648175
3.45418
26.5973
122.83
0.00756371
0.00758075
0.00761776
0.00769334
0.00784371
0.00813109
0.00865485
0.00957128
0.0111436
0.0138585
0.0187203
0.0280657
0.0481661
0.0988891
0.251189
0.826752
3.76625
23.4801
101.552
0.00762119
0.00765832
0.00773786
0.00789419
0.00818522
0.00869869
0.00956584
0.0109923
0.0133296
0.0172352
0.0240543
0.0368235
0.0632878
0.126405
0.303449
0.935816
4.20513
21.2399
79.6418
0.00770066
0.00776893
0.00790908
0.00816977
0.00862498
0.0093805
0.0105929
0.0125117
0.0155681
0.0205647
0.0291123
0.0447319
0.0760532
0.148113
0.346589
1.09458
4.98383
19.6783
65.1176
0.00779875
0.00790865
0.00812317
0.00850128
0.00912764
0.0101216
0.0116619
0.0140369
0.0177448
0.0237005
0.0337003
0.0515697
0.0865757
0.16698
0.401695
1.40077
5.954
18.2368
56.2336
0.0079129
0.00807238
0.00836914
0.00886858
0.00966265
0.010882
0.0127248
0.0155124
0.0197956
0.0265724
0.037772
0.057495
0.0961426
0.188687
0.492428
1.88134
6.8598
16.9786
50.5575
0.00804245
0.0082563
0.00863814
0.00925699
0.0102102
0.0116383
0.0137561
0.0169117
0.0216967
0.029174
0.0413974
0.0628668
0.106179
0.218868
0.638856
2.47183
7.47388
15.9705
46.8102
0.00818726
0.00845729
0.00892338
0.00965639
0.010758
0.0123772
0.0147428
0.0182247
0.0234487
0.0315405
0.0447234
0.0682133
0.118599
0.264795
0.860306
3.10246
7.79172
15.203
44.2699
0.00834665
0.00867231
0.00921942
0.0100596
0.0112982
0.0130912
0.0156797
0.0194525
0.02507
0.0337409
0.047969
0.0742217
0.135115
0.33049
1.14035
3.66311
7.89958
14.614
42.4362
0.00851931
0.00889847
0.00952201
0.0104617
0.0118259
0.0137772
0.0165673
0.0206051
0.0265943
0.035867
0.0513684
0.0814742
0.157509
0.423514
1.46599
4.09805
7.89158
14.1505
41.0632
0.00870347
0.00913308
0.00982786
0.0108594
0.0123388
0.0144344
0.0174097
0.0216964
0.0280569
0.0379992
0.0551021
0.0904843
0.187857
0.548156
1.80962
4.40068
7.83056
13.7766
40.0009
0.00889716
0.00937372
0.0101344
0.0112505
0.0128356
0.0150644
0.0182131
0.0227434
0.0294972
0.040229
0.0594083
0.101865
0.227645
0.700193
2.13427
4.59228
7.74715
13.4703
39.1535
0.00909835
0.00961828
0.0104397
0.0116336
0.0133165
0.0156699
0.0189859
0.0237653
0.0309569
0.0426478
0.0645143
0.116305
0.279791
0.876093
2.41617
4.70382
7.65429
13.2143
38.4647
0.00930513
0.00986494
0.0107422
0.0120081
0.0137822
0.0162545
0.0197369
0.0247799
0.0324706
0.0453266
0.0706133
0.134556
0.346401
1.06628
2.64494
4.76304
7.55845
12.9953
37.8869
0.0095157
0.0101122
0.0110411
0.0123739
0.0142342
0.0168222
0.0204745
0.0258046
0.0340733
0.048346
0.0779199
0.157268
0.426888
1.25682
2.82093
4.78951
7.46454
12.8044
37.3857
0.00972852
0.0103587
0.0113355
0.0127311
0.0146741
0.0173772
0.0212073
0.0268548
0.0357933
0.0517629
0.086634
0.185239
0.519797
1.43714
2.95112
4.79506
7.37475
12.6354
36.9431
0.00994228
0.0106037
0.011625
0.0130802
0.0151038
0.0179237
0.0219431
0.0279449
0.0376632
0.0556979
0.0972117
0.219864
0.623836
1.59993
3.04515
4.78675
7.28975
12.4841
36.5493
0.0101559
0.0108462
0.0119095
0.0134219
0.0155253
0.0184655
0.0226891
0.0290894
0.0397187
0.0602479
0.109894
0.26139
0.733422
1.74128
3.11218
4.76946
7.20998
12.3478
36.1948
0.0103684
0.0110858
0.0121889
0.0137569
0.0159405
0.0190066
0.0234528
0.0303037
0.041993
0.0654903
0.124879
0.309441
0.844114
1.86031
3.15948
4.74677
7.13569
12.2243
35.8724
0.0105791
0.011322
0.0124633
0.014086
0.0163512
0.0195504
0.0242399
0.0315977
0.0445132
0.0715428
0.142709
0.364176
0.952192
1.9584
3.19228
4.72114
7.06684
12.1119
35.5778
0.0107875
0.0115547
0.012733
0.0144102
0.0167595
0.0201005
0.0250576
0.0329886
0.0473232
0.0785454
0.163753
0.424284
1.05449
2.03823
3.21433
4.6941
7.0031
12.0096
35.3086
0.0109932
0.0117836
0.0129982
0.0147303
0.0171669
0.0206598
0.025911
0.0344857
0.0504573
0.0866318
0.188148
0.488109
1.14882
2.10284
3.22833
4.66657
6.94399
11.9157
35.0614
0.0111958
0.0120089
0.0132593
0.0150472
0.0175753
0.0212315
0.0268065
0.0361064
0.0539687
0.0959415
0.215897
0.554072
1.23397
2.15509
3.23636
4.63923
6.88929
11.8294
34.8336
0.0113952
0.0122304
0.0135167
0.0153618
0.0179861
0.021818
0.0277487
0.0378658
0.0579171
0.106683
0.247182
0.620694
1.30959
2.19735
3.24002
4.61251
6.83863
11.7501
34.6234
0.0115913
0.0124482
0.0137708
0.0156749
0.0184007
0.0224226
0.0287464
0.0397851
0.0623581
0.118981
0.281517
0.686481
1.37598
2.23157
3.24047
4.58669
6.79166
11.6768
34.429
0.0117839
0.0126626
0.0140219
0.0159873
0.0188209
0.0230482
0.0298056
0.0418805
0.0673423
0.132921
0.318463
0.750184
1.43386
2.25925
3.23858
4.56188
6.74804
11.6092
34.2489
0.0119732
0.0128737
0.0142704
0.0162997
0.0192479
0.0236973
0.0309309
0.0441715
0.0729546
0.148654
0.357523
0.810844
1.48413
2.28164
3.23498
4.53816
6.70749
11.5465
34.0818
0.012159
0.0130816
0.0145169
0.016613
0.019683
0.0243728
0.032132
0.0466851
0.0792563
0.166153
0.398115
0.867793
1.52775
2.29971
3.23014
4.51556
6.66976
11.4884
33.9266
0.0123416
0.0132865
0.0147616
0.0169278
0.0201277
0.0250777
0.0334167
0.0494461
0.0863073
0.185385
0.439613
0.920644
1.56559
2.31427
3.22443
4.49409
6.63462
11.4345
33.7824
0.0125209
0.0134887
0.015005
0.0172449
0.0205833
0.0258155
0.0347938
0.0524809
0.0941747
0.2063
0.481388
0.969253
1.59844
2.32597
3.21812
4.47372
6.60187
11.3844
33.6481
0.0126972
0.0136884
0.0152475
0.017565
0.0210513
0.0265894
0.0362726
0.055818
0.102914
0.228778
0.522871
1.01367
1.62701
2.33533
3.21142
4.45445
6.57135
11.3379
33.5229
0.0128705
0.0138858
0.0154894
0.0178886
0.0215329
0.0274018
0.0378616
0.0594881
0.11257
0.252649
0.563561
1.05407
1.65188
2.34278
3.20451
4.43624
6.54289
11.2945
33.4062
0.0130409
0.0140811
0.0157311
0.0182166
0.0220295
0.0282571
0.0395728
0.0635199
0.123172
0.277703
0.60304
1.09071
1.67357
2.34866
3.19749
4.41903
6.51631
11.2542
33.2974
0.0132086
0.0142746
0.0159731
0.0185496
0.0225427
0.0291596
0.041418
0.0679421
0.134734
0.303699
0.640979
1.1239
1.69251
2.35326
3.19047
4.40279
6.49147
11.2166
33.1958
0.0133738
0.0144664
0.0162156
0.0188883
0.0230742
0.0301133
0.0434096
0.0727894
0.147261
0.330373
0.677143
1.15394
1.70909
2.3568
3.18352
4.38746
6.46827
11.1815
33.1011
0.0135366
0.0146568
0.016459
0.0192334
0.0236255
0.0311225
0.0455612
0.0780932
0.160736
0.357462
0.711384
1.18112
1.72363
2.35947
3.17668
4.373
6.44657
11.1489
33.0127
0.0136971
0.014846
0.0167037
0.0195857
0.0241986
0.0321921
0.0478866
0.0838806
0.175118
0.384711
0.743634
1.20573
1.7364
2.36143
3.17002
4.3594
6.42632
11.1185
32.9303
0.0138555
0.0150343
0.0169502
0.0199458
0.0247943
0.0333263
0.0504014
0.0901762
0.190348
0.411881
0.773883
1.22804
1.74766
2.36282
3.16356
4.34659
6.4074
11.0901
32.8533
0.014012
0.0152218
0.0171986
0.0203144
0.0254151
0.0345313
0.0531193
0.0969992
0.20635
0.438753
0.802169
1.24827
1.75761
2.36373
3.15731
4.33453
6.3897
11.0637
32.7815
0.0141667
0.0154087
0.0174495
0.0206924
0.0260634
0.0358133
0.0560555
0.104365
0.223031
0.465133
0.82856
1.26665
1.76641
2.36426
3.15128
4.32317
6.37314
11.0391
32.7145
0.0143197
0.0155953
0.0177031
0.0210808
0.0267415
0.0371788
0.0592272
0.112284
0.240288
0.490863
0.853146
1.28336
1.77423
2.36447
3.14549
4.31247
6.35765
11.0161
32.652
0.0144711
0.0157819
0.01796
0.0214803
0.0274514
0.0386344
0.0626508
0.12076
0.258008
0.515814
0.876029
1.29857
1.78117
2.36443
3.13993
4.3024
6.34316
10.9948
32.5937
0.0146214
0.0159685
0.0182205
0.0218921
0.0281958
0.040187
0.0663416
0.129786
0.276075
0.53989
0.897316
1.31245
1.78736
2.36418
3.13462
4.29294
6.32962
10.9748
32.5394
0.0147704
0.0161556
0.018485
0.0223167
0.0289768
0.0418445
0.0703139
0.13935
0.294373
0.563025
0.917116
1.32513
1.79289
2.36378
3.12955
4.28404
6.31697
10.9563
32.4889
0.0149183
0.0163431
0.0187538
0.0227551
0.0297971
0.0436139
0.0745811
0.14943
0.312786
0.585181
0.935534
1.33674
1.79784
2.36326
3.12472
4.27569
6.30517
10.9391
32.442
0.0150654
0.0165315
0.0190276
0.0232087
0.0306602
0.045503
0.0791548
0.16
0.331205
0.606339
0.952672
1.34738
1.80229
2.36264
3.12014
4.26786
6.29415
10.9232
32.3983
0.0152116
0.0167209
0.0193067
0.0236789
0.0315696
0.0475202
0.0840461
0.171023
0.349528
0.626498
0.968629
1.35716
1.8063
2.36197
3.1158
4.26051
6.28389
10.9084
32.3579
0.0153572
0.0169115
0.0195918
0.0241668
0.0325285
0.0496744
0.0892629
0.182457
0.367662
0.645671
0.983493
1.36616
1.80992
2.36125
3.11169
4.25364
6.27433
10.8947
32.3203
0.0155023
0.0171036
0.0198832
0.0246736
0.0335404
0.0519742
0.0948106
0.194255
0.385528
0.663881
0.997352
1.37446
1.81321
2.36051
3.1078
4.2472
6.26543
10.8821
32.2857
0.015647
0.0172976
0.0201818
0.0252008
0.034609
0.0544281
0.100692
0.206368
0.403055
0.681159
1.01028
1.38213
1.8162
2.35975
3.10413
4.24116
6.25714
10.8704
32.2536
0.0157916
0.0174935
0.0204875
0.0257492
0.0357385
0.0570445
0.106906
0.218742
0.420187
0.697542
1.02236
1.38923
1.81892
2.35899
3.10066
4.23549
6.24941
10.8596
32.224
0.0159362
0.0176917
0.0208012
0.0263207
0.0369326
0.0598313
0.11345
0.231321
0.43688
0.713068
1.03365
1.39581
1.82141
2.35824
3.09739
4.2302
6.24224
10.8496
32.1967
0.0160809
0.0178924
0.0211236
0.0269169
0.0381955
0.0627962
0.120317
0.244049
0.453097
0.727778
1.04422
1.40193
1.8237
2.3575
3.09432
4.22528
6.23561
10.8405
32.1717
0.0162258
0.0180959
0.0214555
0.02754
0.0395316
0.0659466
0.127496
0.256871
0.468814
0.741714
1.05413
1.40762
1.82581
2.3568
3.09146
4.22072
6.22951
10.8322
32.149
0.0163712
0.0183026
0.0217975
0.0281915
0.0409456
0.0692886
0.134973
0.269733
0.484016
0.754916
1.06342
1.41293
1.82776
2.35613
3.08879
4.21649
6.2239
10.8247
32.1284
0.0165172
0.0185128
0.0221504
0.0288734
0.0424424
0.072828
0.142732
0.282586
0.498692
0.767427
1.07214
1.41789
1.82959
2.3555
3.08631
4.21258
6.21877
10.818
32.1098
0.016664
0.0187269
0.0225149
0.0295876
0.0440268
0.0765696
0.150753
0.295384
0.512842
0.779285
1.08035
1.42255
1.83129
2.35493
3.08402
4.20897
6.21407
10.8119
32.0931
0.0168118
0.018945
0.0228916
0.0303363
0.0457037
0.080517
0.159016
0.308083
0.526466
0.790529
1.08808
1.42692
1.8329
2.3544
3.08189
4.20565
6.20979
10.8065
32.0783
0.0169607
0.0191674
0.0232812
0.0311215
0.0474777
0.0846728
0.167495
0.320645
0.539573
0.801195
1.09536
1.43103
1.83442
2.35393
3.07993
4.2026
6.20591
10.8017
32.0651
0.017111
0.0193946
0.0236847
0.0319456
0.0493539
0.0890378
0.176165
0.333037
0.552171
0.811319
1.10224
1.43491
1.83585
2.3535
3.07813
4.19981
6.2024
10.7975
32.0536
0.0172629
0.0196271
0.0241035
0.0328106
0.0513369
0.0936117
0.184999
0.34523
0.564273
0.820933
1.10874
1.43857
1.83723
2.35313
3.07649
4.19726
6.19925
10.7939
32.0437
0.0174165
0.0198654
0.0245383
0.0337193
0.0534311
0.0983927
0.193969
0.357198
0.575894
0.830069
1.11489
1.44204
1.83854
2.35282
3.07499
4.19495
6.19645
10.7908
32.0353
0.017572
0.0201097
0.0249902
0.0346743
0.0556409
0.103377
0.203048
0.368923
0.587049
0.838757
1.12073
1.44533
1.8398
2.35255
3.07363
4.19287
6.19398
10.7883
32.0283
0.0177296
0.0203606
0.0254602
0.0356784
0.0579705
0.108561
0.212208
0.380389
0.597755
0.847024
1.12626
1.44846
1.84102
2.35234
3.07242
4.191
6.19182
10.7862
32.0227
0.0178896
0.0206184
0.0259494
0.0367342
0.0604237
0.113936
0.221421
0.391582
0.608028
0.854896
1.13152
1.45143
1.8422
2.35219
3.07133
4.18934
6.18995
10.7846
32.0184
0.018052
0.0208833
0.0264591
0.0378446
0.0630041
0.119497
0.230661
0.402494
0.617886
0.862398
1.13652
1.45428
1.84335
2.35209
3.07037
4.18787
6.18838
10.7835
32.0153
0.0182172
0.0211561
0.0269903
0.0390125
0.0657147
0.125233
0.239903
0.41312
0.627345
0.869553
1.14128
1.45699
1.84447
2.35204
3.06953
4.1866
6.18707
10.7828
32.0135
0.0183854
0.0214375
0.0275443
0.0402406
0.0685581
0.131133
0.249124
0.423455
0.636424
0.876381
1.14582
1.4596
1.84557
2.35204
3.06881
4.1855
6.18602
10.7824
32.0127
0.0185569
0.0217278
0.0281225
0.041532
0.0715362
0.137187
0.258302
0.433499
0.645139
0.882904
1.15016
1.46209
1.84664
2.3521
3.0682
4.18458
6.18523
10.7825
32.013
0.018732
0.0220278
0.0287264
0.0428894
0.0746505
0.143381
0.267417
0.443251
0.653506
0.889138
1.1543
1.46449
1.8477
2.3522
3.06769
4.1838
6.18464
10.7829
32.0143
0.018911
0.0223378
0.0293574
0.0443157
0.0779017
0.149703
0.276451
0.452715
0.661541
0.895101
1.15827
1.4668
1.84875
2.35236
3.06731
4.18324
6.18434
10.7838
32.0167
0.019094
0.0226587
0.0300171
0.0458139
0.0812899
0.156138
0.285387
0.461893
0.66926
0.90081
1.16207
1.46903
1.8498
2.35258
3.06705
4.18286
6.18431
10.7851
32.0203
0.0192813
0.022991
0.0307071
0.0473867
0.0848143
0.162672
0.294212
0.47079
0.676677
0.906279
1.16572
1.47119
1.85084
2.35287
3.0669
4.18263
6.1845
10.7868
32.0249
0.0194732
0.0233353
0.031429
0.0490369
0.0884735
0.169291
0.302912
0.479412
0.683807
0.911525
1.16922
1.47329
1.85188
2.3532
3.06685
4.18253
6.18487
10.7888
32.0304
0.0196702
0.0236924
0.0321845
0.0507671
0.0922655
0.175979
0.311477
0.487764
0.690663
0.916559
1.17259
1.47532
1.85293
2.35358
3.06687
4.18255
6.18541
10.791
32.0367
0.0198725
0.024063
0.0329752
0.0525797
0.0961871
0.182722
0.319897
0.495854
0.69726
0.921394
1.17584
1.47729
1.85397
2.354
3.06698
4.18269
6.18614
10.7936
32.0438
0.0200806
0.0244479
0.0338029
0.054477
0.100235
0.189505
0.328167
0.503688
0.70361
0.926042
1.17897
1.47922
1.85501
2.35446
3.06717
4.18295
6.18704
10.7964
32.0517
0.0202948
0.0248479
0.0346695
0.0564611
0.104404
0.196315
0.336279
0.511273
0.709724
0.930514
1.18199
1.48109
1.85605
2.35497
3.06743
4.18334
6.18812
10.7995
32.0603
0.0205154
0.025264
0.0355766
0.0585338
0.108691
0.203137
0.344229
0.518618
0.715614
0.934819
1.1849
1.48291
1.85709
2.35551
3.06778
4.18384
6.18936
10.8029
32.0697
0.0207428
0.0256969
0.0365263
0.0606968
0.113088
0.20996
0.352014
0.52573
0.721291
0.938967
1.18772
1.4847
1.85813
2.3561
3.0682
4.18446
6.19077
10.8065
32.0798
0.0209774
0.0261476
0.0375202
0.0629513
0.11759
0.21677
0.359631
0.532615
0.726765
0.942965
1.19045
1.48644
1.85918
2.35673
3.0687
4.18517
6.19233
10.8104
32.0905
0.0212197
0.0266172
0.0385605
0.0652984
0.12219
0.223557
0.367079
0.539283
0.732045
0.946823
1.1931
1.48815
1.86023
2.3574
3.06928
4.18603
6.19407
10.8145
32.1021
0.0214701
0.0271064
0.0396488
0.0677387
0.126881
0.230309
0.374358
0.54574
0.737141
0.950547
1.19566
1.48982
1.86129
2.35812
3.06994
4.18701
6.19598
10.8189
32.1144
0.0217291
0.0276165
0.040787
0.0702726
0.131655
0.237017
0.381467
0.551993
0.742062
0.954146
1.19815
1.49147
1.86237
2.35889
3.07068
4.18808
6.19803
10.8235
32.1273
0.0219971
0.0281483
0.041977
0.0728999
0.136505
0.243673
0.388407
0.558051
0.746816
0.957627
1.20057
1.49309
1.86345
2.35968
3.07146
4.18921
6.20018
10.8283
32.1408
0.0222747
0.0287031
0.0432206
0.0756203
0.141423
0.250267
0.395179
0.563919
0.751411
0.960995
1.20292
1.49468
1.86454
2.36051
3.0723
4.19043
6.20243
10.8333
32.1547
0.0225624
0.029282
0.0445195
0.0784329
0.146399
0.256792
0.401786
0.569605
0.755854
0.964256
1.20521
1.49625
1.86563
2.36137
3.07319
4.19172
6.2048
10.8384
32.169
0.0228608
0.0298861
0.0458754
0.0813366
0.151427
0.263243
0.40823
0.575116
0.760153
0.967417
1.20744
1.4978
1.86673
2.36226
3.07414
4.1931
6.20729
10.8437
32.1839
0.0231704
0.0305165
0.0472899
0.0843297
0.156498
0.269613
0.414513
0.580459
0.764314
0.970481
1.20962
1.49932
1.86783
2.36318
3.07514
4.19456
6.20989
10.8492
32.1992
0.0234919
0.0311748
0.0487645
0.0874104
0.161603
0.275898
0.420638
0.585639
0.768343
0.973453
1.21174
1.50082
1.86894
2.36413
3.0762
4.1961
6.21261
10.8549
32.215
0.0238259
0.0318622
0.0503007
0.0905759
0.166735
0.282092
0.426606
0.590662
0.772245
0.976338
1.21381
1.5023
1.87006
2.36511
3.07732
4.19772
6.21543
10.8607
32.2313
0.024173
0.0325797
0.0518994
0.0938233
0.171885
0.288192
0.432422
0.595533
0.776027
0.979139
1.21583
1.50377
1.87119
2.36613
3.07848
4.19941
6.21836
10.8667
32.2481
0.0245337
0.0333284
0.0535619
0.0971494
0.177046
0.294195
0.438089
0.600259
0.779693
0.981861
1.21781
1.50522
1.87232
2.36717
3.0797
4.20117
6.22138
10.8729
32.2654
0.0249089
0.0341096
0.0552891
0.100551
0.18221
0.300099
0.443609
0.604845
0.783248
0.984507
1.21974
1.50665
1.87346
2.36825
3.08096
4.20299
6.2245
10.8792
32.2832
0.0252993
0.0349245
0.0570818
0.104024
0.18737
0.305902
0.448986
0.609297
0.786699
0.987082
1.22164
1.50807
1.87461
2.36935
3.08226
4.20489
6.22771
10.8857
32.3014
0.0257056
0.0357745
0.0589406
0.107566
0.192521
0.311602
0.454225
0.613619
0.790049
0.989589
1.22349
1.50947
1.87578
2.37047
3.08362
4.20684
6.23102
10.8923
32.3201
0.0261285
0.0366609
0.0608657
0.11117
0.197655
0.317198
0.459329
0.617816
0.793303
0.992031
1.22531
1.51087
1.87695
2.37163
3.08501
4.20887
6.23443
10.8991
32.3391
0.0265689
0.037585
0.0628575
0.114834
0.202766
0.32269
0.4643
0.621894
0.796464
0.994411
1.2271
1.51225
1.87813
2.37281
3.08646
4.21095
6.23792
10.906
32.3585
0.0270275
0.038548
0.0649159
0.118552
0.20785
0.328077
0.469143
0.625856
0.799537
0.996732
1.22885
1.51363
1.87931
2.37402
3.08794
4.21309
6.24148
10.913
32.3783
0.0275053
0.0395511
0.0670406
0.12232
0.2129
0.333359
0.473861
0.629707
0.802526
0.998997
1.23057
1.51499
1.88051
2.37525
3.08946
4.21529
6.24513
10.9202
32.3983
0.028003
0.0405956
0.0692312
0.126132
0.217913
0.338537
0.478457
0.63345
0.805434
1.00121
1.23226
1.51635
1.88172
2.37651
3.09101
4.21754
6.24884
10.9274
32.4188
0.0285215
0.0416825
0.0714869
0.129984
0.222884
0.34361
0.482934
0.637091
0.808263
1.00337
1.23392
1.5177
1.88293
2.37778
3.0926
4.21983
6.25263
10.9348
32.4395
0.0290617
0.0428129
0.0738068
0.13387
0.227809
0.34858
0.487297
0.640631
0.811018
1.00548
1.23556
1.51903
1.88415
2.37908
3.09422
4.22218
6.25648
10.9423
32.4605
0.0296246
0.0439879
0.0761898
0.137786
0.232683
0.353446
0.491548
0.644076
0.813701
1.00754
1.23717
1.52036
1.88537
2.3804
3.09588
4.22457
6.26039
10.9499
32.4819
0.0302111
0.0452084
0.0786344
0.141727
0.237505
0.358211
0.49569
0.647428
0.816315
1.00955
1.23875
1.52169
1.88661
2.38173
3.09757
4.227
6.26437
10.9575
32.5035
0.030822
0.0464752
0.081139
0.145688
0.242271
0.362876
0.499726
0.650691
0.818863
1.01153
1.24031
1.523
1.88785
2.38309
3.09929
4.22948
6.26841
10.9653
32.5254
0.0314583
0.0477892
0.0837017
0.149663
0.246979
0.367441
0.50366
0.653867
0.821346
1.01346
1.24185
1.52431
1.88909
2.38446
3.10104
4.232
6.27251
10.9732
32.5476
0.032121
0.0491511
0.0863206
0.153648
0.251626
0.371907
0.507494
0.656961
0.823769
1.01535
1.24337
1.52561
1.89035
2.38585
3.10281
4.23456
6.27667
10.9811
32.57
0.0328111
0.0505613
0.0889932
0.157639
0.25621
0.376277
0.511231
0.659973
0.826131
1.0172
1.24486
1.52691
1.89161
2.38726
3.10462
4.23716
6.28088
10.9892
32.5926
0.0335294
0.0520205
0.0917173
0.161631
0.26073
0.380551
0.514874
0.662909
0.828437
1.01901
1.24633
1.5282
1.89287
2.38869
3.10645
4.23979
6.28514
10.9973
32.6155
0.034277
0.0535288
0.0944902
0.16562
0.265184
0.384732
0.518426
0.665769
0.830687
1.02079
1.24779
1.52948
1.89414
2.39012
3.1083
4.24246
6.28945
11.0055
32.6387
0.0350547
0.0550866
0.0973092
0.169601
0.269571
0.388821
0.521888
0.668556
0.832885
1.02253
1.24922
1.53076
1.89542
2.39158
3.11018
4.24517
6.2938
11.0138
32.662
0.0358634
0.0566938
0.100171
0.173571
0.27389
0.392818
0.525264
0.671273
0.835031
1.02424
1.25064
1.53203
1.8967
2.39305
3.11208
4.24791
6.29821
11.0221
32.6856
0.0367042
0.0583504
0.103073
0.177526
0.278139
0.396727
0.528557
0.673923
0.837127
1.02591
1.25204
1.53329
1.89798
2.39453
3.11401
4.25067
6.30266
11.0305
32.7093
0.0375777
0.0600562
0.106013
0.181462
0.28232
0.400548
0.531767
0.676506
0.839175
1.02756
1.25342
1.53455
1.89927
2.39603
3.11595
4.25347
6.30715
11.039
32.7333
0.0384849
0.0618108
0.108986
0.185377
0.28643
0.404283
0.534899
0.679026
0.841177
1.02917
1.25478
1.53581
1.90056
2.39753
3.11792
4.2563
6.31168
11.0476
32.7574
0.0394266
0.0636137
0.111989
0.189266
0.29047
0.407934
0.537953
0.681484
0.843135
1.03076
1.25613
1.53705
1.90186
2.39905
3.1199
4.25916
6.31625
11.0562
32.7817
0.0404035
0.0654642
0.11502
0.193127
0.294439
0.411503
0.540932
0.683882
0.845048
1.03231
1.25746
1.5383
1.90316
2.40058
3.1219
4.26204
6.32085
11.0648
32.8062
0.0414164
0.0673614
0.118075
0.196958
0.298337
0.414991
0.543838
0.686221
0.84692
1.03384
1.25878
1.53954
1.90446
2.40212
3.12392
4.26494
6.32549
11.0735
32.8308
0.0424658
0.0693045
0.12115
0.200755
0.302165
0.418399
0.546673
0.688505
0.84875
1.03534
1.26008
1.54077
1.90577
2.40367
3.12596
4.26787
6.33017
11.0823
32.8556
0.0435524
0.0712922
0.124242
0.204516
0.305923
0.421729
0.549439
0.690734
0.850541
1.03682
1.26137
1.542
1.90708
2.40524
3.12801
4.27083
6.33487
11.0911
32.8805
0.0446766
0.0733232
0.127348
0.208239
0.30961
0.424983
0.552137
0.692909
0.852293
1.03827
1.26264
1.54322
1.90839
2.4068
3.13008
4.2738
6.33961
11.1
32.9056
0.045839
0.0753962
0.130465
0.211923
0.313227
0.428162
0.55477
0.695033
0.854008
1.03969
1.2639
1.54443
1.9097
2.40838
3.13216
4.2768
6.34437
11.1089
32.9308
0.0470398
0.0775095
0.133589
0.215565
0.316775
0.431268
0.557338
0.697107
0.855686
1.04109
1.26514
1.54564
1.91101
2.40997
3.13426
4.27981
6.34917
11.1179
32.9561
0.0482793
0.0796615
0.136717
0.219163
0.320253
0.434303
0.559845
0.699132
0.857329
1.04247
1.26637
1.54685
1.91233
2.41156
3.13637
4.28284
6.35398
11.1268
32.9815
0.0495577
0.0818504
0.139846
0.222717
0.323663
0.437266
0.56229
0.701109
0.858937
1.04382
1.26758
1.54805
1.91365
2.41316
3.13849
4.28589
6.35882
11.1359
33.007
0.0508753
0.0840741
0.142973
0.226224
0.327005
0.440161
0.564677
0.70304
0.860511
1.04515
1.26879
1.54924
1.91496
2.41476
3.14062
4.28896
6.36369
11.1449
33.0327
0.052232
0.0863308
0.146095
0.229684
0.330279
0.442989
0.567005
0.704925
0.862052
1.04646
1.26998
1.55043
1.91628
2.41637
3.14276
4.29204
6.36857
11.154
33.0584
0.0536279
0.0886181
0.149209
0.233095
0.333486
0.44575
0.569277
0.706767
0.863561
1.04775
1.27115
1.55161
1.9176
2.41799
3.14491
4.29513
6.37347
11.1631
33.0842
0.0550624
0.0909339
0.152313
0.236457
0.336627
0.448445
0.571494
0.708565
0.865038
1.04901
1.27231
1.55279
1.91892
2.41961
3.14707
4.29824
6.37839
11.1723
33.1101
0.0565352
0.0932759
0.155403
0.239767
0.339702
0.451077
0.573657
0.710321
0.866485
1.05026
1.27346
1.55396
1.92023
2.42123
3.14924
4.30136
6.38333
11.1814
33.1361
0.0580458
0.0956417
0.158477
0.243026
0.342712
0.453647
0.575767
0.712035
0.867901
1.05148
1.2746
1.55512
1.92155
2.42286
3.15141
4.30449
6.38828
11.1906
33.1621
0.0595936
0.0980288
0.161532
0.246233
0.345657
0.456155
0.577825
0.71371
0.869287
1.05268
1.27572
1.55628
1.92286
2.42449
3.15359
4.30762
6.39324
11.1998
33.1882
0.0611777
0.100435
0.164567
0.249388
0.348539
0.458603
0.579833
0.715345
0.870644
1.05386
1.27684
1.55742
1.92417
2.42611
3.15576
4.31076
6.3982
11.209
33.2143
0.0627974
0.102857
0.167579
0.252489
0.351357
0.460991
0.581791
0.716941
0.871973
1.05502
1.27793
1.55856
1.92547
2.42774
3.15795
4.31391
6.40318
11.2182
33.2405
0.0644515
0.105293
0.170566
0.255536
0.354113
0.463322
0.5837
0.7185
0.873274
1.05617
1.27902
1.5597
1.92677
2.42937
3.16014
4.31707
6.40817
11.2275
33.2668
0.0661389
0.10774
0.173525
0.258529
0.356808
0.465596
0.585563
0.720021
0.874546
1.05729
1.28009
1.56082
1.92807
2.431
3.16234
4.32024
6.41318
11.2367
33.2931
0.0678584
0.110195
0.176456
0.261468
0.359442
0.467813
0.587378
0.721505
0.875792
1.05839
1.28115
1.56194
1.92937
2.43263
3.16454
4.32341
6.41819
11.246
33.3194
0.0696086
0.112657
0.179356
0.264353
0.362015
0.469976
0.589148
0.722954
0.87701
1.05947
1.28219
1.56305
1.93066
2.43427
3.16674
4.32659
6.42321
11.2553
33.3458
0.071388
0.115122
0.182223
0.267183
0.364529
0.472084
0.590873
0.724368
0.878202
1.06054
1.28322
1.56415
1.93196
2.4359
3.16895
4.32978
6.42824
11.2646
33.3722
0.0731951
0.117588
0.185056
0.269958
0.366985
0.47414
0.592554
0.725747
0.879368
1.06158
1.28424
1.56525
1.93324
2.43753
3.17115
4.33297
6.43328
11.2739
33.3987
0.0750283
0.120052
0.187854
0.272677
0.369382
0.476143
0.594192
0.727092
0.880509
1.06261
1.28525
1.56633
1.93452
2.43916
3.17336
4.33616
6.43831
11.2832
33.4251
0.0768859
0.122512
0.190614
0.275342
0.371722
0.478094
0.595787
0.728404
0.881624
1.06362
1.28624
1.56741
1.9358
2.44079
3.17557
4.33935
6.44335
11.2925
33.4516
0.0787654
0.124966
0.193336
0.277952
0.374005
0.479995
0.59734
0.729683
0.882714
1.06461
1.28723
1.56848
1.93707
2.44242
3.17778
4.34254
6.44839
11.3018
33.4781
0.0806686
0.127411
0.196018
0.280507
0.376231
0.481846
0.598852
0.730929
0.883779
1.06558
1.28819
1.56954
1.93834
2.44404
3.17998
4.34573
6.45343
11.3111
33.5045
0.0825922
0.129845
0.19866
0.283006
0.378403
0.483648
0.600324
0.732143
0.88482
1.06654
1.28915
1.57059
1.9396
2.44566
3.18219
4.34893
6.45847
11.3204
33.531
0.0845324
0.132266
0.201259
0.285451
0.380519
0.485402
0.601755
0.733326
0.885837
1.06747
1.29009
1.57163
1.94086
2.44727
3.18439
4.35212
6.4635
11.3297
33.5574
0.0864866
0.134672
0.203816
0.287841
0.382581
0.487107
0.603148
0.734477
0.886829
1.06839
1.29102
1.57267
1.9421
2.44889
3.18659
4.3553
6.46853
11.3389
33.5839
0.0884527
0.137061
0.206329
0.290176
0.384589
0.488766
0.604501
0.735598
0.887798
1.06929
1.29193
1.57369
1.94334
2.45049
3.18879
4.35849
6.47356
11.3482
33.6103
0.0904287
0.13943
0.208798
0.292457
0.386544
0.490378
0.605816
0.736688
0.888742
1.07017
1.29284
1.5747
1.94458
2.45209
3.19098
4.36166
6.47858
11.3574
33.6366
0.0924125
0.141777
0.211221
0.294683
0.388446
0.491944
0.607093
0.737747
0.889663
1.07103
1.29372
1.57571
1.9458
2.45369
3.19316
4.36484
6.48358
11.3667
33.6629
0.0944021
0.144102
0.213598
0.296855
0.390296
0.493465
0.608333
0.738777
0.890561
1.07188
1.2946
1.5767
1.94702
2.45527
3.19534
4.368
6.48858
11.3759
33.6892
0.0963953
0.146401
0.215929
0.298972
0.392095
0.494941
0.609536
0.739778
0.891435
1.0727
1.29546
1.57768
1.94823
2.45685
3.19752
4.37116
6.49357
11.3851
33.7155
0.0983901
0.148674
0.218212
0.301036
0.393842
0.496372
0.610702
0.740748
0.892287
1.07351
1.2963
1.57865
1.94943
2.45843
3.19968
4.37432
6.49855
11.3942
33.7416
0.100384
0.150919
0.220448
0.303047
0.395539
0.49776
0.611832
0.74169
0.893114
1.0743
1.29713
1.57961
1.95062
2.45999
3.20184
4.37746
6.50352
11.4034
33.7677
0.102376
0.153134
0.222635
0.305004
0.397186
0.499105
0.612926
0.742603
0.893919
1.07507
1.29795
1.58055
1.9518
2.46155
3.20399
4.38059
6.50847
11.4125
33.7938
0.104364
0.155318
0.224774
0.306908
0.398784
0.500407
0.613985
0.743486
0.894701
1.07583
1.29875
1.58149
1.95297
2.46309
3.20613
4.38371
6.5134
11.4216
33.8197
0.106345
0.157469
0.226864
0.308759
0.400332
0.501666
0.615008
0.744342
0.895459
1.07656
1.29953
1.58241
1.95413
2.46463
3.20826
4.38682
6.51831
11.4306
33.8456
0.108317
0.159588
0.228906
0.310558
0.401831
0.502883
0.615997
0.745168
0.896195
1.07728
1.30031
1.58332
1.95528
2.46616
3.21038
4.38992
6.52321
11.4396
33.8713
0.110279
0.161671
0.230898
0.312305
0.403282
0.504059
0.616951
0.745967
0.896907
1.07797
1.30106
1.58421
1.95642
2.46768
3.21249
4.393
6.52809
11.4486
33.897
0.112228
0.163719
0.23284
0.313999
0.404686
0.505194
0.61787
0.746737
0.897596
1.07865
1.3018
1.5851
1.95754
2.46918
3.21459
4.39608
6.53295
11.4575
33.9226
0.114164
0.16573
0.234734
0.315642
0.406042
0.506287
0.618756
0.747479
0.898262
1.07931
1.30252
1.58596
1.95866
2.47068
3.21668
4.39913
6.53778
11.4664
33.9481
0.116084
0.167704
0.236578
0.317235
0.407351
0.50734
0.619607
0.748193
0.898905
1.07995
1.30323
1.58682
1.95976
2.47216
3.21875
4.40217
6.54259
11.4753
33.9735
0.117986
0.16964
0.238372
0.318776
0.408614
0.508353
0.620425
0.748879
0.899525
1.08057
1.30392
1.58766
1.96084
2.47363
3.22081
4.4052
6.54738
11.4841
33.9987
0.119869
0.171537
0.240117
0.320267
0.40983
0.509327
0.621209
0.749537
0.900122
1.08117
1.3046
1.58849
1.96192
2.47509
3.22286
4.4082
6.55214
11.4928
34.0238
0.121731
0.173394
0.241812
0.321708
0.411001
0.51026
0.62196
0.750167
0.900696
1.08175
1.30526
1.5893
1.96298
2.47653
3.22489
4.41119
6.55688
11.5015
34.0488
0.123571
0.175211
0.243459
0.323099
0.412127
0.511155
0.622678
0.75077
0.901246
1.08232
1.3059
1.59009
1.96403
2.47796
3.2269
4.41415
6.56158
11.5102
34.0736
0.125388
0.176988
0.245056
0.324442
0.413209
0.512011
0.623363
0.751345
0.901773
1.08286
1.30652
1.59088
1.96506
2.47937
3.2289
4.4171
6.56625
11.5188
34.0983
0.12718
0.178724
0.246605
0.325735
0.414246
0.512829
0.624016
0.751892
0.902277
1.08338
1.30713
1.59164
1.96608
2.48077
3.23088
4.42002
6.57089
11.5273
34.1228
0.128946
0.180418
0.248105
0.326981
0.415239
0.513608
0.624636
0.752413
0.902757
1.08388
1.30771
1.59239
1.96708
2.48215
3.23284
4.42292
6.5755
11.5358
34.1472
0.130685
0.182071
0.249557
0.328179
0.416189
0.51435
0.625224
0.752905
0.903214
1.08436
1.30829
1.59312
1.96806
2.48352
3.23479
4.4258
6.58007
11.5442
34.1714
0.132395
0.183682
0.250961
0.329329
0.417096
0.515055
0.62578
0.753371
0.903647
1.08482
1.30884
1.59384
1.96903
2.48486
3.23671
4.42865
6.58461
11.5525
34.1954
0.134076
0.185251
0.252317
0.330433
0.417961
0.515722
0.626304
0.753809
0.904057
1.08526
1.30937
1.59453
1.96998
2.4862
3.23862
4.43148
6.58911
11.5608
34.2192
0.135727
0.186778
0.253626
0.331491
0.418783
0.516353
0.626797
0.75422
0.904444
1.08568
1.30989
1.59521
1.97092
2.48751
3.2405
4.43428
6.59357
11.569
34.2429
0.137347
0.188263
0.254889
0.332503
0.419565
0.516947
0.627258
0.754604
0.904807
1.08608
1.31038
1.59588
1.97184