/*--------------------------------*- C++ -*----------------------------------*\
| =========                 |                                                 |
| \\      /  F ield         | OpenFOAM: The Open Source CFD Toolbox           |
|  \\    /   O peration     | Version:  2212                                  |
|   \\  /    A nd           | Website:  www.openfoam.com                      |
|    \\/     M anipulation  |                                                 |
\*---------------------------------------------------------------------------*/
FoamFile
{
    version     2.0;
    format      ascii;
    arch        "LSB;label=32;scalar=64";
    class       volScalarField;
    location    "10000";
    object      k;
}
// * * * * * * * * * * * * * * * * * * * * * * * * * * * * * * * * * * * * * //

dimensions      [0 2 -2 0 0 0 0];

internalField   nonuniform List<scalar> 
200000
(
0.00374677
0.00374737
0.0037481
0.00374922
0.00375072
0.00375236
0.00375408
0.00375597
0.00375814
0.00376081
0.00376463
0.0037708
0.00378251
0.00381099
0.0039068
0.00422267
0.00487801
0.0139315
0.0484126
0.0037496
0.00375116
0.00375365
0.00375703
0.003761
0.00376539
0.00376994
0.00377434
0.00377854
0.00378283
0.00378798
0.00379614
0.0038125
0.00385039
0.00396899
0.0042728
0.00576309
0.019534
0.0516862
0.0037621
0.00376549
0.00377045
0.00377599
0.00378162
0.00378684
0.00379119
0.00379439
0.00379642
0.00379751
0.00379656
0.0037954
0.00379691
0.00380154
0.00381704
0.0039442
0.00612253
0.0193837
0.0455298
0.00378157
0.00378596
0.00379171
0.00379743
0.00380228
0.00380562
0.00380706
0.00380633
0.00380318
0.00379699
0.00378819
0.00377365
0.00374606
0.00369224
0.00360041
0.0036795
0.00697134
0.0190091
0.0387197
0.00380335
0.00380772
0.00381283
0.00381707
0.00381952
0.0038196
0.00381696
0.00381124
0.00380183
0.00378751
0.00376593
0.00373062
0.00366719
0.00355043
0.00341343
0.00382667
0.00839238
0.0189639
0.0338561
0.00382391
0.0038273
0.00383062
0.0038323
0.00383149
0.00382768
0.00382045
0.00380918
0.00379266
0.00376854
0.00373206
0.00367344
0.00357377
0.00341252
0.00329323
0.00444873
0.0102214
0.0188985
0.0307021
0.00384079
0.0038425
0.00384335
0.00384193
0.00383753
0.00382961
0.00381758
0.0038004
0.00377617
0.00374133
0.00368927
0.00360798
0.0034793
0.00331437
0.00338774
0.00547426
0.0120369
0.0187528
0.0285997
0.00385312
0.00385283
0.00385096
0.00384634
0.00383832
0.00382627
0.00380934
0.00378604
0.00375376
0.00370796
0.00364083
0.00354008
0.00339511
0.00326501
0.00370835
0.00689732
0.0135428
0.0185915
0.0271684
0.00386106
0.00385872
0.00385416
0.00384641
0.00383484
0.00381869
0.00379681
0.00376728
0.00372692
0.00367051
0.00358998
0.00347539
0.00333405
0.00331518
0.00428624
0.0085086
0.014659
0.0184519
0.0261764
0.00386522
0.00386084
0.0038537
0.00384295
0.00382793
0.00380771
0.00378088
0.00374515
0.00369694
0.00363081
0.00353946
0.00341836
0.00330232
0.00345495
0.005094
0.010071
0.0154466
0.0183374
0.0254485
0.003866
0.00385983
0.00385027
0.00383665
0.00381826
0.00379403
0.00376232
0.00372061
0.00366516
0.00359092
0.0034929
0.00337674
0.00331728
0.00372342
0.00614883
0.011434
0.0160078
0.0182418
0.0248966
0.00386413
0.00385625
0.00384442
0.00382804
0.00380637
0.00377821
0.00374177
0.00369439
0.00363245
0.00355163
0.00344989
0.00334583
0.00337309
0.00414318
0.0073355
0.0125468
0.0164214
0.018156
0.0244653
0.00386004
0.00385056
0.00383657
0.00381754
0.00379267
0.00376069
0.00371973
0.00366716
0.00359973
0.00351461
0.00341534
0.00334149
0.0034846
0.00470721
0.00852799
0.0134246
0.016731
0.0180834
0.0241185
0.0038541
0.00384312
0.00382706
0.00380546
0.0037775
0.00374187
0.0036967
0.00363955
0.00356788
0.00348107
0.00338981
0.00335652
0.00366802
0.00542074
0.0096384
0.0141125
0.0169617
0.0180184
0.0238348
0.00384661
0.0038342
0.00381616
0.00379208
0.00376115
0.00372206
0.00367303
0.00361195
0.00353711
0.00345034
0.00337084
0.003397
0.00394048
0.00624517
0.0106205
0.0146567
0.017132
0.0179551
0.0235956
0.00383778
0.003824
0.00380405
0.00377759
0.00374383
0.00370152
0.00364904
0.00358472
0.00350812
0.0034249
0.00336723
0.00346883
0.00430347
0.00711361
0.0114613
0.0150941
0.0172601
0.0178937
0.023387
0.00382779
0.0038127
0.00379092
0.00376219
0.00372576
0.00368048
0.003625
0.00355827
0.00348147
0.003405
0.00337517
0.00357885
0.00475178
0.00797442
0.0121698
0.0154487
0.0173561
0.0178342
0.0232021
0.00381677
0.00380043
0.00377691
0.00374601
0.00370709
0.00365914
0.00360112
0.0035327
0.00345682
0.00338929
0.0033974
0.00374009
0.00529322
0.00879262
0.0127655
0.0157372
0.0174268
0.0177759
0.0230369
0.00380486
0.00378732
0.00376213
0.0037292
0.00368797
0.00363764
0.00357753
0.0035082
0.00343497
0.00338131
0.00343714
0.00395556
0.00589063
0.00954583
0.0132693
0.0159738
0.0174789
0.0177191
0.0228877
0.00379216
0.00377346
0.0037467
0.00371186
0.00366853
0.00361614
0.00355449
0.0034853
0.00341706
0.00338221
0.00349784
0.00422522
0.00651768
0.0102241
0.0136986
0.01617
0.0175177
0.0176647
0.0227516
0.00377875
0.00375896
0.00373071
0.0036941
0.00364887
0.00359471
0.00353195
0.00346341
0.00340084
0.00339005
0.00358395
0.00454904
0.00715172
0.0108274
0.0140668
0.0163349
0.0175469
0.017613
0.0226268
0.00376471
0.00374388
0.00371424
0.003676
0.00362909
0.00357351
0.00351026
0.00344397
0.00339188
0.00340842
0.00370136
0.00492936
0.0077745
0.0113616
0.0143845
0.0164748
0.0175687
0.0175648
0.0225126
0.00375011
0.00372831
0.00369736
0.00365764
0.00360926
0.00355259
0.00348936
0.00342596
0.00338377
0.00343671
0.00385133
0.00534954
0.00837179
0.011835
0.0146603
0.0165941
0.0175847
0.0175189
0.0224073
0.00373501
0.0037123
0.00368015
0.0036391
0.00358948
0.00353209
0.00346956
0.00341056
0.00338282
0.00347905
0.00403511
0.00579799
0.00893428
0.0122559
0.0149014
0.0166972
0.017597
0.0174757
0.0223102
0.00371949
0.00369592
0.00366267
0.00362043
0.00356978
0.00351193
0.00345034
0.00339586
0.00338662
0.00353631
0.00425134
0.00626356
0.00945731
0.0126313
0.0151138
0.0167871
0.0176064
0.0174352
0.0222204
0.00370357
0.00367922
0.00364496
0.00360169
0.00355023
0.00349233
0.0034328
0.00338673
0.00339692
0.00361229
0.00450631
0.00673643
0.00994001
0.0129675
0.0153022
0.0168662
0.0176134
0.0173974
0.0221371
0.00368733
0.00366225
0.00362709
0.00358292
0.00353091
0.00347339
0.00341665
0.00337906
0.00341354
0.0037081
0.00479152
0.00720738
0.0103839
0.0132696
0.0154705
0.0169364
0.0176186
0.0173619
0.0220598
0.00367079
0.00364504
0.00360909
0.00356419
0.00351185
0.00345504
0.00340142
0.00337244
0.0034379
0.00382446
0.00510205
0.00766871
0.0107916
0.0135421
0.0156216
0.016999
0.0176225
0.0173288
0.021988
0.003654
0.00362766
0.003591
0.00354553
0.00349309
0.0034374
0.00338801
0.00337181
0.00347175
0.0039619
0.00543307
0.00811469
0.0111662
0.013789
0.015758
0.0170553
0.0176254
0.0172978
0.0219212
0.003637
0.00361012
0.00357287
0.00352697
0.00347466
0.00342049
0.00337606
0.00337461
0.00351586
0.00412152
0.00577941
0.00854153
0.0115108
0.0140136
0.0158818
0.0171063
0.0176275
0.017269
0.021859
0.00361982
0.00359247
0.00355472
0.00350854
0.00345663
0.00340451
0.00336644
0.0033813
0.00357179
0.00430506
0.0061361
0.00894718
0.0118281
0.0142187
0.0159946
0.0171527
0.0176292
0.0172421
0.0218011
0.00360249
0.00357473
0.00353659
0.0034903
0.00343906
0.00338951
0.0033586
0.00339258
0.00364029
0.00450909
0.00649808
0.00933089
0.0121209
0.0144067
0.016098
0.0171952
0.0176306
0.0172171
0.021747
0.00358504
0.00355694
0.0035185
0.00347226
0.00342191
0.00337517
0.00335126
0.00340886
0.00372184
0.00473163
0.00686067
0.00969278
0.0123915
0.0145796
0.0161932
0.0172345
0.017632
0.017194
0.0216965
0.0035675
0.00353911
0.00350048
0.00345443
0.00340524
0.00336202
0.00334796
0.00343124
0.00381701
0.00497073
0.00721988
0.0100335
0.0126422
0.0147392
0.0162811
0.0172708
0.0176333
0.0171725
0.0216493
0.00354989
0.00352128
0.00348255
0.00343687
0.00338917
0.00335025
0.00334763
0.00346019
0.00392616
0.00522402
0.00757248
0.0103541
0.0128749
0.014887
0.0163627
0.0173048
0.0176347
0.0171526
0.0216053
0.00353224
0.00350346
0.00346474
0.0034196
0.00337373
0.00333977
0.0033498
0.00349663
0.00405138
0.00548911
0.00791605
0.0106555
0.0130915
0.0150244
0.0164386
0.0173365
0.0176361
0.0171342
0.0215641
0.00351455
0.00348568
0.00344708
0.00340265
0.00335893
0.00333053
0.00335481
0.00354098
0.0041909
0.00576333
0.00824893
0.0109392
0.0132934
0.0151523
0.0165096
0.0173665
0.0176378
0.0171173
0.0215257
0.00349686
0.00346795
0.00342957
0.00338607
0.00334489
0.00332294
0.00336325
0.00359364
0.00434408
0.0060439
0.00857006
0.0112061
0.0134822
0.015272
0.0165763
0.0173951
0.0176399
0.0171019
0.0214899
0.00347918
0.00345029
0.00341225
0.00336982
0.00333133
0.00331523
0.00337507
0.00365493
0.0045103
0.00632821
0.00887885
0.0114576
0.013659
0.0153841
0.0166391
0.0174222
0.0176422
0.0170877
0.0214564
0.00346153
0.00343273
0.00339512
0.00335394
0.00331865
0.00331088
0.00339103
0.00372516
0.00468872
0.00661385
0.00917508
0.0116947
0.013825
0.0154895
0.0166983
0.0174481
0.0176448
0.0170747
0.0214251
0.00344392
0.00341527
0.0033782
0.00333852
0.00330701
0.00330877
0.00341158
0.00380517
0.00487834
0.00689868
0.00945877
0.0119186
0.0139812
0.0155888
0.0167543
0.0174728
0.0176477
0.0170629
0.0213959
0.00342636
0.00339793
0.00336153
0.00332359
0.00329637
0.00330857
0.00343715
0.00389548
0.00507802
0.00718092
0.00973017
0.0121301
0.0141284
0.0156825
0.0168075
0.0174965
0.0176508
0.0170522
0.0213687
0.00340888
0.00338072
0.00334513
0.00330917
0.00328668
0.00331026
0.00346794
0.00399553
0.00528638
0.00745911
0.00998962
0.0123302
0.0142674
0.0157712
0.0168581
0.0175194
0.0176543
0.0170425
0.0213432
0.00339147
0.00336367
0.00332902
0.00329533
0.00327819
0.00331422
0.0035042
0.00410522
0.00550195
0.00773209
0.0102376
0.0125198
0.0143989
0.0158553
0.0169064
0.0175416
0.0176581
0.0170338
0.0213195
0.00337416
0.00334679
0.00331319
0.00328188
0.0032696
0.00332046
0.00354615
0.00422441
0.00572325
0.00799898
0.0104745
0.0126996
0.0145236
0.0159353
0.0169525
0.0175631
0.0176622
0.017026
0.0212975
0.00335696
0.00333008
0.00329765
0.00326898
0.0032628
0.00332934
0.00359402
0.00435286
0.00594879
0.00825915
0.0107009
0.0128703
0.0146419
0.0160114
0.0169968
0.0175841
0.0176667
0.0170191
0.0212769
0.00333987
0.00331355
0.00328244
0.00325681
0.00325799
0.00334121
0.00364823
0.0044902
0.00617719
0.00851216
0.0109173
0.0130328
0.0147545
0.0160841
0.0170393
0.0176046
0.0176714
0.0170131
0.0212579
0.00332291
0.00329723
0.00326761
0.00324545
0.00325497
0.00335644
0.00370938
0.00463599
0.00640714
0.00875775
0.0111243
0.0131874
0.0148618
0.0161535
0.0170802
0.0176246
0.0176766
0.0170079
0.0212401
0.00330609
0.00328113
0.0032532
0.00323486
0.00325316
0.00337513
0.00377723
0.00478966
0.00663748
0.00899577
0.0113223
0.0133349
0.0149641
0.01622
0.0171197
0.0176442
0.017682
0.0170035
0.0212237
0.00328941
0.00326527
0.00323918
0.00322499
0.00325272
0.0033974
0.00385181
0.00495052
0.00686716
0.00922622
0.0115119
0.0134756
0.0150619
0.0162839
0.0171578
0.0176636
0.0176878
0.0169998
0.0212085
0.0032729
0.00324967
0.00322567
0.00321611
0.00325391
0.00342342
0.00393322
0.0051178
0.00709527
0.00944915
0.0116934
0.0136101
0.0151555
0.0163451
0.0171947
0.0176823
0.0176937
0.0169967
0.0211945
0.00325656
0.00323432
0.00321242
0.00320669
0.00325666
0.00345333
0.00402148
0.0052907
0.00732104
0.00966467
0.0118675
0.0137388
0.0152452
0.016404
0.0172302
0.0177006
0.0176998
0.0169942
0.0211815
0.00324039
0.00321922
0.00319959
0.00319889
0.00326124
0.00348727
0.00411654
0.0054684
0.00754384
0.00987295
0.0120344
0.0138621
0.0153312
0.0164608
0.0172648
0.0177188
0.0177062
0.0169923
0.0211696
0.0032244
0.00320439
0.00318732
0.00319263
0.00326793
0.00352572
0.00421831
0.00565006
0.00776313
0.0100742
0.0121946
0.0139803
0.0154139
0.0165155
0.0172984
0.0177368
0.0177129
0.016991
0.0211586
0.00320861
0.00318988
0.0031757
0.00318797
0.00327697
0.00356874
0.00432665
0.00583486
0.00797851
0.0102686
0.0123485
0.0140937
0.0154933
0.0165684
0.0173312
0.0177547
0.01772
0.0169904
0.0211486
0.00319303
0.00317571
0.00316471
0.00318405
0.0032884
0.00361638
0.00444132
0.00602203
0.00818966
0.0104564
0.0124965
0.0142028
0.0155699
0.0166196
0.0173631
0.0177724
0.0177273
0.0169903
0.0211396
0.00317767
0.00316187
0.00315428
0.00318105
0.00330228
0.00366874
0.00456203
0.00621082
0.00839636
0.0106378
0.0126388
0.0143077
0.0156438
0.0166692
0.0173944
0.0177901
0.017735
0.0169908
0.0211315
0.00316255
0.00314844
0.00314461
0.00317916
0.0033187
0.00372594
0.00468843
0.00640054
0.00859845
0.0108131
0.0127759
0.0144087
0.0157151
0.0167173
0.017425
0.0178076
0.017743
0.0169918
0.0211241
0.00314766
0.00313527
0.00313452
0.00317838
0.00333778
0.00378807
0.00482015
0.00659055
0.00879581
0.0109825
0.012908
0.0145061
0.015784
0.016764
0.0174549
0.017825
0.0177511
0.0169934
0.0211176
0.00313299
0.00312238
0.0031253
0.0031788
0.0033596
0.00385518
0.00495676
0.00678026
0.00898842
0.0111463
0.0130353
0.0146001
0.0158507
0.0168095
0.0174842
0.0178423
0.0177596
0.0169953
0.0211118
0.00311857
0.0031099
0.00311741
0.00318064
0.00338445
0.00392731
0.00509781
0.00696918
0.00917624
0.0113048
0.0131582
0.0146909
0.0159153
0.0168537
0.0175129
0.0178594
0.0177682
0.0169977
0.0211068
0.00310441
0.00309796
0.00311101
0.00318411
0.0034124
0.00400446
0.00524283
0.00715685
0.00935931
0.011458
0.0132769
0.0147787
0.0159779
0.0168968
0.0175411
0.0178765
0.0177771
0.0170006
0.0211024
0.00309055
0.00308653
0.0031051
0.00318924
0.00344352
0.00408659
0.00539133
0.00734287
0.00953767
0.0116064
0.0133916
0.0148636
0.0160387
0.0169388
0.0175688
0.0178935
0.0177862
0.0170038
0.0210988
0.00307699
0.00307556
0.00309979
0.00319604
0.00347791
0.00417362
0.00554284
0.00752691
0.00971138
0.01175
0.0135025
0.0149458
0.0160977
0.0169798
0.0175961
0.0179104
0.0177955
0.0170074
0.0210957
0.00306376
0.00306516
0.00309522
0.00320458
0.00351569
0.00426546
0.00569688
0.0077087
0.00988054
0.0118892
0.0136099
0.0150255
0.0161551
0.0170198
0.0176229
0.0179273
0.0178049
0.0170114
0.0210932
0.00305081
0.00305466
0.00309144
0.00321493
0.00355694
0.00436196
0.00585296
0.00788801
0.0100452
0.012024
0.0137139
0.0151028
0.0162109
0.0170589
0.0176492
0.017944
0.0178146
0.0170158
0.0210913
0.00303807
0.00304428
0.00308847
0.00322714
0.00360175
0.00446296
0.00601065
0.00806465
0.0102056
0.0121547
0.0138146
0.0151778
0.0162652
0.0170971
0.0176752
0.0179607
0.0178244
0.0170204
0.02109
0.00302564
0.00303518
0.00308644
0.00324135
0.0036502
0.00456825
0.00616951
0.00823847
0.0103617
0.0122815
0.0139123
0.0152506
0.0163182
0.0171346
0.0177008
0.0179774
0.0178344
0.0170254
0.0210892
0.00301367
0.00302732
0.00308553
0.00325767
0.00370236
0.00467763
0.00632914
0.00840935
0.0105137
0.0124046
0.0140071
0.0153214
0.0163698
0.0171712
0.017726
0.0179939
0.0178446
0.0170307
0.0210888
0.00300213
0.00301984
0.00308576
0.00327613
0.00375826
0.00479085
0.00648916
0.00857722
0.0106617
0.0125241
0.0140992
0.0153903
0.0164201
0.0172072
0.0177509
0.0180104
0.0178549
0.0170363
0.021089
0.00299099
0.00301277
0.00308716
0.00329684
0.00381795
0.00490764
0.00664922
0.008742
0.0108058
0.0126401
0.0141886
0.0154573
0.0164692
0.0172423
0.0177753
0.0180265
0.0178651
0.017042
0.0210895
0.00298032
0.00300622
0.00308976
0.00331986
0.00388142
0.00502773
0.00680901
0.00890367
0.0109461
0.0127529
0.0142755
0.0155225
0.0165172
0.0172769
0.0177997
0.0180435
0.017876
0.0170483
0.0210906
0.00296954
0.00300025
0.00309359
0.00334529
0.00394868
0.00515085
0.00696823
0.0090622
0.0110828
0.0128625
0.01436
0.0155861
0.0165641
0.017311
0.017824
0.0180604
0.0178871
0.0170549
0.0210922
0.00295891
0.00299487
0.00309871
0.00337321
0.0040197
0.00527669
0.00712664
0.00921758
0.011216
0.0129691
0.0144423
0.0156482
0.0166101
0.0173445
0.017848
0.0180772
0.0178983
0.0170618
0.0210942
0.00294911
0.00299013
0.00310515
0.00340368
0.00409443
0.00540495
0.00728401
0.00936984
0.0113457
0.0130729
0.0145224
0.0157087
0.0166551
0.0173774
0.0178717
0.0180938
0.0179095
0.0170689
0.0210966
0.00294043
0.00298614
0.00311302
0.00343679
0.00417282
0.00553535
0.00744013
0.00951899
0.0114722
0.0131739
0.0146005
0.0157678
0.0166992
0.0174099
0.0178951
0.0181103
0.0179209
0.0170761
0.0210994
0.00293211
0.00298297
0.00312236
0.00347259
0.00425479
0.00566758
0.00759482
0.00966506
0.0115955
0.0132722
0.0146766
0.0158256
0.0167424
0.0174417
0.0179182
0.0181268
0.0179323
0.0170836
0.0211025
0.00292415
0.00298064
0.00313322
0.00351116
0.00434024
0.00580136
0.00774795
0.0098081
0.0117158
0.0133681
0.0147508
0.015882
0.0167848
0.0174731
0.0179411
0.0181432
0.0179438
0.0170913
0.021106
0.00291659
0.00297916
0.00314566
0.00355254
0.00442906
0.0059364
0.00789937
0.00994814
0.0118331
0.0134615
0.0148232
0.0159372
0.0168263
0.017504
0.0179638
0.0181596
0.0179554
0.0170991
0.0211098
0.0029095
0.00297855
0.00315975
0.00359678
0.00452111
0.00607245
0.00804899
0.0100852
0.0119475
0.0135526
0.0148939
0.0159912
0.016867
0.0175344
0.0179862
0.018176
0.0179671
0.0171072
0.0211139
0.00290292
0.00297885
0.00317555
0.00364391
0.00461627
0.00620925
0.00819671
0.0102195
0.0120592
0.0136415
0.014963
0.016044
0.016907
0.0175644
0.0180085
0.0181923
0.017979
0.0171154
0.0211183
0.00289687
0.0029801
0.00319312
0.00369398
0.00471437
0.00634655
0.00834246
0.0103509
0.0121682
0.0137283
0.0150304
0.0160958
0.0169463
0.0175939
0.0180305
0.0182086
0.0179909
0.0171239
0.021123
0.00289139
0.00298232
0.00321251
0.00374699
0.00481524
0.00648413
0.00848618
0.0104795
0.0122747
0.013813
0.0150963
0.0161464
0.0169849
0.0176231
0.0180525
0.0182253
0.0180031
0.0171326
0.0211281
0.00288649
0.00298556
0.0032338
0.00380296
0.00491873
0.00662178
0.00862783
0.0106054
0.0123787
0.0138957
0.0151608
0.0161961
0.0170228
0.017652
0.0180745
0.018242
0.0180155
0.0171416
0.0211335
0.0028822
0.00298986
0.00325703
0.00386188
0.00502463
0.00675931
0.00876736
0.0107287
0.0124803
0.0139765
0.0152239
0.0162448
0.0170602
0.0176805
0.0180962
0.0182584
0.0180279
0.0171506
0.0211391
0.00287854
0.00299527
0.00328226
0.00392375
0.00513277
0.00689653
0.00890475
0.0108494
0.0125796
0.0140555
0.0152856
0.0162925
0.0170969
0.0177086
0.0181176
0.0182746
0.0180402
0.0171598
0.021145
0.00287554
0.00300183
0.00330955
0.00398855
0.00524296
0.00703328
0.00904
0.0109675
0.0126766
0.0141327
0.015346
0.0163394
0.0171331
0.0177364
0.0181389
0.0182908
0.0180525
0.017169
0.0211511
0.00287323
0.00300958
0.00333896
0.00405623
0.00535501
0.00716941
0.00917308
0.0110833
0.0127715
0.0142082
0.0154052
0.0163854
0.0171686
0.0177638
0.0181599
0.0183069
0.0180649
0.0171784
0.0211574
0.00287161
0.00301856
0.00337052
0.00412676
0.00546872
0.00730478
0.00930401
0.0111966
0.0128643
0.0142821
0.0154632
0.0164306
0.0172036
0.0177908
0.0181808
0.018323
0.0180774
0.0171878
0.0211639
0.00287071
0.00302882
0.0034043
0.00420008
0.00558392
0.00743929
0.00943278
0.0113076
0.0129551
0.0143545
0.0155201
0.0164749
0.0172381
0.0178176
0.0182015
0.0183391
0.0180899
0.0171975
0.0211707
0.00287058
0.00304041
0.00344032
0.00427614
0.0057004
0.00757281
0.00955941
0.0114163
0.013044
0.0144253
0.0155758
0.0165185
0.017272
0.017844
0.0182221
0.0183552
0.0181026
0.0172072
0.0211776
0.00287126
0.00305338
0.00347864
0.00435483
0.00581798
0.00770524
0.00968391
0.0115228
0.0131309
0.0144946
0.0156304
0.0165613
0.0173055
0.0178702
0.0182426
0.0183713
0.0181153
0.0172171
0.0211847
0.00287277
0.00306777
0.00351927
0.00443609
0.00593647
0.0078365
0.00980629
0.0116272
0.013216
0.0145625
0.015684
0.0166033
0.0173385
0.017896
0.018263
0.0183874
0.018128
0.0172271
0.0211921
0.00287514
0.00308361
0.00356225
0.0045198
0.00605571
0.00796651
0.00992656
0.0117294
0.0132994
0.0146291
0.0157366
0.0166447
0.017371
0.0179217
0.0182832
0.0184034
0.0181408
0.0172372
0.0211997
0.00287841
0.00310095
0.00360761
0.00460589
0.00617553
0.0080952
0.0100448
0.0118296
0.013381
0.0146943
0.0157882
0.0166854
0.0174031
0.017947
0.0183033
0.0184195
0.0181537
0.0172475
0.0212075
0.00288261
0.00311984
0.00365534
0.00469424
0.00629578
0.00822254
0.0101609
0.0119279
0.013461
0.0147582
0.0158389
0.0167254
0.0174347
0.0179721
0.0183233
0.0184355
0.0181667
0.0172578
0.0212155
0.00288777
0.00314033
0.00370547
0.00478473
0.00641631
0.00834846
0.0102751
0.0120241
0.0135394
0.0148209
0.0158886
0.0167648
0.0174659
0.0179969
0.0183432
0.0184515
0.0181797
0.0172683
0.0212236
0.00289393
0.00316246
0.00375799
0.00487725
0.00653698
0.00847294
0.0103873
0.0121186
0.0136162
0.0148824
0.0159375
0.0168036
0.0174968
0.0180216
0.018363
0.0184675
0.0181927
0.0172788
0.0212319
0.0029011
0.00318628
0.0038129
0.00497167
0.00665765
0.00859593
0.0104975
0.0122111
0.0136915
0.0149427
0.0159855
0.0168418
0.0175272
0.018046
0.0183827
0.0184835
0.0182058
0.0172895
0.0212404
0.00290933
0.00321182
0.00387019
0.00506786
0.0067782
0.0087174
0.0106058
0.0123019
0.0137653
0.015002
0.0160328
0.0168795
0.0175573
0.0180701
0.0184023
0.0184995
0.018219
0.0173002
0.0212491
0.00291865
0.00323914
0.00392984
0.00516569
0.00689852
0.00883734
0.0107122
0.012391
0.0138378
0.0150601
0.0160792
0.0169165
0.017587
0.0180941
0.0184217
0.0185154
0.0182322
0.0173111
0.0212579
0.00292908
0.00326826
0.00399183
0.00526503
0.00701849
0.00895573
0.0108168
0.0124783
0.0139088
0.0151172
0.0161248
0.0169531
0.0176164
0.0181178
0.018441
0.0185313
0.0182454
0.017322
0.0212668
0.00294068
0.00329923
0.00405612
0.00536574
0.00713802
0.00907255
0.0109195
0.012564
0.0139785
0.0151732
0.0161697
0.0169891
0.0176453
0.0181413
0.0184602
0.0185471
0.0182586
0.0173329
0.0212759
0.00295348
0.00333208
0.00412267
0.0054677
0.00725701
0.0091878
0.0110204
0.0126482
0.0140469
0.0152283
0.0162139
0.0170246
0.017674
0.0181645
0.0184793
0.018563
0.0182719
0.017344
0.0212851
0.00296751
0.00336683
0.00419143
0.00557078
0.00737538
0.00930147
0.0111196
0.0127307
0.0141141
0.0152824
0.0162574
0.0170595
0.0177023
0.0181876
0.0184983
0.0185788
0.0182851
0.0173551
0.0212944
0.00298281
0.00340352
0.00426236
0.00567483
0.00749305
0.00941356
0.0112171
0.0128117
0.01418
0.0153355
0.0163001
0.017094
0.0177303
0.0182105
0.0185171
0.0185945
0.0182985
0.0173662
0.0213038
0.00299942
0.00344217
0.0043354
0.00577975
0.00760995
0.00952407
0.0113129
0.0128913
0.0142447
0.0153877
0.0163422
0.017128
0.0177579
0.0182331
0.0185359
0.0186103
0.0183118
0.0173775
0.0213134
0.00301739
0.0034828
0.00441047
0.00588539
0.00772602
0.009633
0.011407
0.0129693
0.0143083
0.0154391
0.0163837
0.0171616
0.0177852
0.0182556
0.0185546
0.0186259
0.0183251
0.0173887
0.0213231
0.00303674
0.00352543
0.00448751
0.00599165
0.0078412
0.00974036
0.0114995
0.013046
0.0143707
0.0154896
0.0164245
0.0171947
0.0178123
0.0182779
0.0185731
0.0186416
0.0183385
0.0174001
0.0213329
0.00305752
0.00357007
0.00456643
0.0060984
0.00795543
0.00984616
0.0115904
0.0131213
0.014432
0.0155392
0.0164646
0.0172273
0.017839
0.0183
0.0185916
0.0186572
0.0183519
0.0174115
0.0213428
0.00307977
0.00361673
0.00464717
0.00620554
0.00806867
0.0099504
0.0116798
0.0131953
0.0144923
0.015588
0.0165042
0.0172596
0.0178654
0.0183219
0.01861
0.0186728
0.0183653
0.0174229
0.0213528
0.00310352
0.0036654
0.00472963
0.00631295
0.00818087
0.0100531
0.0117676
0.0132679
0.0145515
0.015636
0.0165432
0.0172914
0.0178916
0.0183436
0.0186282
0.0186884
0.0183787
0.0174344
0.0213629
0.0031288
0.00371609
0.00481372
0.00642052
0.00829201
0.0101543
0.0118539
0.0133393
0.0146097
0.0156832
0.0165816
0.0173227
0.0179174
0.0183651
0.0186464
0.0187039
0.0183921
0.0174459
0.021373
0.00315565
0.00376879
0.00489936
0.00652817
0.00840204
0.0102539
0.0119387
0.0134094
0.0146669
0.0157297
0.0166194
0.0173537
0.017943
0.0183865
0.0186644
0.0187193
0.0184055
0.0174575
0.0213833
0.00318411
0.0038235
0.00498644
0.00663579
0.00851093
0.010352
0.0120221
0.0134782
0.0147231
0.0157754
0.0166567
0.0173843
0.0179683
0.0184076
0.0186824
0.0187348
0.0184189
0.0174691
0.0213937
0.00321421
0.00388018
0.00507488
0.00674331
0.00861867
0.0104487
0.0121041
0.0135459
0.0147783
0.0158204
0.0166934
0.0174145
0.0179934
0.0184287
0.0187002
0.0187501
0.0184323
0.0174807
0.0214041
0.00324597
0.00393882
0.00516457
0.00685062
0.00872522
0.0105439
0.0121847
0.0136124
0.0148326
0.0158647
0.0167297
0.0174443
0.0180182
0.0184495
0.018718
0.0187655
0.0184457
0.0174924
0.0214146
0.00327942
0.00399939
0.00525541
0.00695766
0.00883057
0.0106376
0.0122639
0.0136778
0.0148861
0.0159083
0.0167653
0.0174738
0.0180427
0.0184702
0.0187356
0.0187808
0.0184591
0.0175041
0.0214252
0.0033146
0.00406185
0.00534731
0.00706434
0.00893471
0.0107299
0.0123418
0.0137421
0.0149386
0.0159512
0.0168005
0.0175028
0.0180669
0.0184906
0.0187532
0.018796
0.0184725
0.0175158
0.0214359
0.00335152
0.00412618
0.00544016
0.00717061
0.0090376
0.0108207
0.0124183
0.0138052
0.0149903
0.0159935
0.0168352
0.0175315
0.0180909
0.018511
0.0187706
0.0188112
0.0184859
0.0175275
0.0214466
0.00339019
0.00419232
0.00553387
0.00727638
0.00913926
0.0109101
0.0124936
0.0138673
0.0150411
0.016035
0.0168694
0.0175599
0.0181147
0.0185311
0.018788
0.0188263
0.0184993
0.0175393
0.0214574
0.00343065
0.00426024
0.00562834
0.0073816
0.00923966
0.0109981
0.0125676
0.0139283
0.0150911
0.016076
0.0169031
0.0175879
0.0181382
0.0185511
0.0188052
0.0188414
0.0185127
0.0175511
0.0214683
0.0034729
0.00432987
0.00572348
0.00748622
0.0093388
0.0110848
0.0126404
0.0139883
0.0151402
0.0161163
0.0169364
0.0176155
0.0181615
0.018571
0.0188224
0.0188565
0.018526
0.0175628
0.0214792
0.00351696
0.00440115
0.00581918
0.00759018
0.00943667
0.0111701
0.0127119
0.0140473
0.0151886
0.016156
0.0169692
0.0176429
0.0181845
0.0185906
0.0188394
0.0188714
0.0185394
0.0175747
0.0214901
0.00356282
0.00447404
0.00591535
0.00769342
0.00953327
0.011254
0.0127822
0.0141053
0.0152361
0.0161951
0.0170015
0.0176698
0.0182073
0.0186101
0.0188563
0.0188864
0.0185527
0.0175865
0.0215011
0.00361049
0.00454846
0.00601192
0.00779591
0.00962859
0.0113366
0.0128514
0.0141623
0.015283
0.0162336
0.0170334
0.0176965
0.0182298
0.0186295
0.0188732
0.0189012
0.018566
0.0175983
0.0215122
0.00365997
0.00462435
0.00610877
0.0078976
0.00972264
0.0114179
0.0129194
0.0142184
0.015329
0.0162715
0.0170648
0.0177228
0.0182521
0.0186486
0.0188899
0.0189161
0.0185793
0.0176101
0.0215233
0.00371127
0.00470164
0.00620584
0.00799846
0.00981541
0.0114979
0.0129862
0.0142735
0.0153743
0.0163089
0.0170958
0.0177488
0.0182742
0.0186677
0.0189065
0.0189308
0.0185925
0.0176219
0.0215344
0.00376437
0.00478025
0.00630304
0.00809843
0.00990691
0.0115767
0.013052
0.0143277
0.0154189
0.0163457
0.0171264
0.0177745
0.0182961
0.0186865
0.0189231
0.0189455
0.0186057
0.0176338
0.0215456
0.00381926
0.0048601
0.00640027
0.00819749
0.00999712
0.0116541
0.0131166
0.014381
0.0154627
0.0163819
0.0171565
0.0177999
0.0183177
0.0187052
0.0189395
0.0189601
0.0186189
0.0176456
0.0215568
0.00387593
0.00494112
0.00649748
0.00829561
0.0100861
0.0117303
0.0131801
0.0144334
0.0155059
0.0164175
0.0171863
0.0178249
0.0183391
0.0187237
0.0189558
0.0189747
0.0186321
0.0176574
0.0215681
0.00393432
0.00502324
0.00659457
0.00839276
0.0101737
0.0118053
0.0132426
0.0144849
0.0155483
0.0164527
0.0172156
0.0178497
0.0183602
0.0187421
0.018972
0.0189892
0.0186452
0.0176693
0.0215793
0.00399456
0.00510636
0.00669149
0.00848891
0.0102601
0.011879
0.013304
0.0145355
0.0155901
0.0164873
0.0172445
0.0178741
0.0183812
0.0187603
0.018988
0.0190036
0.0186583
0.0176811
0.0215906
0.00405654
0.00519042
0.00678816
0.00858403
0.0103453
0.0119515
0.0133643
0.0145853
0.0156311
0.0165213
0.017273
0.0178982
0.0184019
0.0187783
0.0190039
0.0190179
0.0186713
0.0176928
0.021602
0.00412017
0.00527533
0.00688452
0.00867811
0.0104291
0.0120228
0.0134237
0.0146343
0.0156716
0.0165549
0.0173011
0.017922
0.0184223
0.0187962
0.0190197
0.0190321
0.0186843
0.0177046
0.0216133
0.00418539
0.005361
0.00698051
0.00877112
0.0105117
0.012093
0.013482
0.0146824
0.0157113
0.0165879
0.0173288
0.0179455
0.0184425
0.0188138
0.0190354
0.0190463
0.0186972
0.0177163
0.0216247
0.00425214
0.00544735
0.00707606
0.00886305
0.0105931
0.0121619
0.0135393
0.0147297
0.0157504
0.0166204
0.0173561
0.0179687
0.0184626
0.0188314
0.019051
0.0190604
0.0187101
0.017728
0.0216361
0.00432038
0.00553429
0.00717111
0.00895388
0.0106732
0.0122297
0.0135956
0.0147762
0.0157889
0.0166524
0.017383
0.0179916
0.0184823
0.0188487
0.0190665
0.0190744
0.018723
0.0177398
0.0216475
0.00439005
0.00562173
0.00726563
0.0090436
0.0107521
0.0122964
0.013651
0.014822
0.0158267
0.0166839
0.0174095
0.0180142
0.0185019
0.0188659
0.0190819
0.0190884
0.0187358
0.0177515
0.0216589
0.00446108
0.00570959
0.00735954
0.00913218
0.0108297
0.0123619
0.0137054
0.0148669
0.0158639
0.0167149
0.0174356
0.0180365
0.0185212
0.018883
0.0190972
0.0191023
0.0187486
0.0177632
0.0216703
0.00453343
0.00579779
0.0074528
0.00921962
0.0109061
0.0124263
0.0137588
0.014911
0.0159004
0.0167454
0.0174614
0.0180586
0.0185404
0.0188999
0.0191123
0.0191161
0.0187614
0.0177748
0.0216817
0.00460702
0.00588625
0.00754536
0.0093059
0.0109813
0.0124896
0.0138113
0.0149544
0.0159364
0.0167754
0.0174867
0.0180803
0.0185593
0.0189166
0.0191274
0.0191299
0.018774
0.0177865
0.0216932
0.00468178
0.00597488
0.00763719
0.00939101
0.0110552
0.0125518
0.0138628
0.014997
0.0159717
0.016805
0.0175117
0.0181017
0.018578
0.0189331
0.0191423
0.0191435
0.0187867
0.0177981
0.0217047
0.00475765
0.0060636
0.00772822
0.00947494
0.0111279
0.0126129
0.0139135
0.0150388
0.0160064
0.016834
0.0175363
0.0181229
0.0185964
0.0189495
0.0191571
0.0191571
0.0187992
0.0178096
0.0217161
0.00483454
0.00615234
0.00781844
0.00955768
0.0111995
0.0126729
0.0139632
0.01508
0.0160406
0.0168626
0.0175606
0.0181437
0.0186147
0.0189657
0.0191717
0.0191705
0.0188118
0.0178212
0.0217276
0.00491238
0.00624103
0.00790778
0.00963923
0.0112698
0.0127318
0.014012
0.0151203
0.0160741
0.0168908
0.0175844
0.0181643
0.0186327
0.0189818
0.0191863
0.0191839
0.0188242
0.0178327
0.021739
0.00499108
0.00632958
0.00799622
0.00971956
0.0113389
0.0127897
0.0140599
0.01516
0.0161071
0.0169184
0.0176079
0.0181846
0.0186504
0.0189977
0.0192007
0.0191972
0.0188366
0.0178441
0.0217505
0.00507058
0.00641794
0.00808373
0.00979868
0.0114068
0.0128465
0.014107
0.0151989
0.0161394
0.0169456
0.0176311
0.0182046
0.018668
0.0190134
0.019215
0.0192104
0.0188489
0.0178556
0.0217619
0.00515078