/*--------------------------------*- C++ -*----------------------------------*\
| =========                 |                                                 |
| \\      /  F ield         | OpenFOAM: The Open Source CFD Toolbox           |
|  \\    /   O peration     | Version:  2212                                  |
|   \\  /    A nd           | Website:  www.openfoam.com                      |
|    \\/     M anipulation  |                                                 |
\*---------------------------------------------------------------------------*/
FoamFile
{
    version     2.0;
    format      ascii;
    arch        "LSB;label=32;scalar=64";
    class       volScalarField;
    location    "10000";
    object      k;
}
// * * * * * * * * * * * * * * * * * * * * * * * * * * * * * * * * * * * * * //

dimensions      [0 2 -2 0 0 0 0];

internalField   nonuniform List<scalar> 
200000
(
0.00374626
0.00374627
0.00374629
0.00374632
0.00374638
0.0037465
0.00374678
0.00374738
0.00374862
0.00375108
0.00375583
0.00376517
0.00378499
0.00383459
0.00399709
0.00441653
0.00586124
0.0102512
0.00966268
0.00373916
0.00373924
0.00373938
0.00373963
0.00374008
0.00374087
0.00374224
0.00374456
0.00374842
0.00375482
0.00376568
0.00378529
0.00382476
0.00391807
0.00419529
0.00494242
0.00863195
0.0158839
0.0163914
0.00373271
0.00373288
0.00373319
0.0037337
0.00373453
0.00373586
0.00373791
0.00374101
0.00374571
0.00375292
0.00376448
0.00378442
0.0038228
0.00390904
0.00414165
0.00487914
0.0078907
0.0125199
0.0162989
0.00372686
0.0037271
0.00372753
0.00372818
0.00372912
0.00373046
0.00373233
0.00373491
0.0037385
0.00374363
0.00375132
0.00376378
0.00378654
0.00383656
0.00397998
0.00450691
0.00629132
0.00939833
0.0156479
0.00372152
0.00372178
0.00372219
0.00372272
0.00372336
0.00372409
0.00372489
0.00372573
0.00372653
0.00372715
0.00372728
0.00372639
0.00372382
0.00372243
0.00375718
0.00402961
0.00501219
0.00750155
0.0148388
0.00371645
0.0037166
0.00371677
0.00371684
0.00371669
0.0037162
0.00371515
0.00371322
0.00370984
0.003704
0.00369376
0.00367537
0.00364177
0.00358284
0.00350727
0.003548
0.00409871
0.00636903
0.0141848
0.00371135
0.00371121
0.00371087
0.00371012
0.00370876
0.00370651
0.00370294
0.00369738
0.0036887
0.00367488
0.00365222
0.00361374
0.00354659
0.00343068
0.00325894
0.00314417
0.00351504
0.00576901
0.0136567
0.00370595
0.00370535
0.00370425
0.00370238
0.00369944
0.00369497
0.00368833
0.00367845
0.00366358
0.00364063
0.00360417
0.00354434
0.00344376
0.00327666
0.00303272
0.00283961
0.00320939
0.0054723
0.0131998
0.00370008
0.00369886
0.0036968
0.00369355
0.0036887
0.00368166
0.00367148
0.00365672
0.00363494
0.00360206
0.00355105
0.00346975
0.00333799
0.00312864
0.00283797
0.00262329
0.003048
0.00535485
0.0127924
0.00369363
0.00369165
0.00368844
0.0036836
0.0036766
0.00366666
0.00365257
0.00363245
0.00360325
0.00355996
0.00349423
0.00339235
0.00323318
0.00299219
0.00267882
0.0024845
0.00298344
0.00534735
0.0124283
0.00368649
0.00368366
0.00367916
0.00367254
0.00366316
0.00365006
0.00363175
0.00360594
0.00356899
0.00351509
0.00343497
0.00331416
0.00313214
0.00286942
0.0025493
0.00237204
0.00299135
0.00541112
0.0121038
0.00367863
0.00367484
0.00366893
0.00366038
0.00364845
0.00363197
0.0036092
0.00357745
0.00353259
0.0034682
0.00337447
0.00323695
0.00303726
0.0027632
0.00245657
0.00235005
0.00306725
0.00552526
0.0118158
0.00367
0.00366519
0.00365776
0.00364716
0.00363252
0.0036125
0.00358509
0.00354728
0.00349451
0.00341999
0.00331372
0.00316203
0.00294939
0.00267065
0.00238343
0.00236807
0.00320122
0.00567531
0.0115624
0.00366059
0.0036547
0.00364568
0.00363293
0.00361545
0.00359176
0.00355961
0.00351569
0.00345518
0.00337108
0.00325363
0.00309044
0.00286971
0.00259543
0.00235119
0.00242179
0.00338974
0.00585135
0.0113418
0.00365041
0.0036434
0.00363271
0.00361772
0.00359733
0.00356987
0.00353293
0.00348298
0.00341501
0.00332206
0.00319496
0.00302313
0.00279934
0.00253837
0.00234656
0.00250992
0.00362347
0.00604508
0.0111522
0.00363947
0.00363129
0.00361889
0.0036016
0.00357822
0.00354696
0.00350525
0.00344941
0.00337439
0.00327347
0.00313838
0.0029608
0.00273845
0.00249693
0.00235954
0.0026325
0.00389069
0.00624874
0.0109912
0.00362778
0.00361841
0.00360426
0.00358461
0.00355821
0.00352316
0.00347674
0.00341523
0.00333368
0.00322579
0.00308445
0.00290391
0.00268709
0.00247
0.00239245
0.00278717
0.00417961
0.0064549
0.0108562
0.00361538
0.00360479
0.00358885
0.00356684
0.0035374
0.00349857
0.00344758
0.00338071
0.00329321
0.00317939
0.00303348
0.00285228
0.00264342
0.00245415
0.00244481
0.00296823
0.00447961
0.0066565
0.0107441
0.00360229
0.00359046
0.00357273
0.00354832
0.00351587
0.00347333
0.00341794
0.00334606
0.00325326
0.0031346
0.00298574
0.00280629
0.00260965
0.00245733
0.00252028
0.00318377
0.00478286
0.00684857
0.0106517
0.00358854
0.00357547
0.00355593
0.00352914
0.00349371
0.00344757
0.00338799
0.00331151
0.00321409
0.00309164
0.00294139
0.00276576
0.00258371
0.00246662
0.00261073
0.00341992
0.00508109
0.0070277
0.0105758
0.00357418
0.00355986
0.00353851
0.00350936
0.003471
0.00342139
0.00335787
0.00327723
0.00317591
0.00305072
0.00290052
0.00273061
0.00256591
0.00249107
0.0027204
0.00366848
0.00536646
0.00719138
0.0105134
0.00355923
0.00354366
0.00352051
0.00348904
0.00344784
0.00339491
0.00332774
0.00324339
0.00313886
0.00301191
0.00286301
0.00270024
0.0025549
0.00252622
0.0028489
0.00392312
0.00563294
0.00733787
0.0104617
0.00354373
0.00352692
0.003502
0.00346825
0.0034243
0.00336824
0.00329771
0.00321013
0.00310307
0.00297528
0.00282883
0.00267489
0.00255286
0.00257229
0.00299385
0.00417768
0.00587663
0.00746628
0.0104181
0.00352771
0.00350968
0.00348301
0.00344704
0.00340046
0.00334146
0.0032679
0.00317755
0.00306862
0.00294084
0.00279793
0.00265432
0.00255617
0.00262929
0.00315865
0.00442782
0.0060962
0.00757683
0.0103806
0.00351122
0.00349198
0.0034636
0.00342549
0.0033764
0.00331468
0.00323841
0.00314575
0.00303557
0.00290856
0.00277013
0.0026382
0.00256708
0.00269616
0.0033341
0.00466919
0.00629206
0.00767078
0.0103473
0.00349428
0.00347386
0.00344382
0.00340364
0.0033522
0.00328797
0.0032093
0.0031148
0.00300394
0.00287844
0.00274546
0.00262672
0.0025849
0.00277567
0.00351598
0.00489821
0.00646557
0.00774998
0.0103171
0.00347693
0.00345535
0.00342371
0.00338156
0.0033279
0.00326139
0.00318066
0.00308473
0.00297372
0.00285029
0.00272319
0.00261809
0.00260875
0.00286657
0.00370115
0.00511245
0.00661857
0.00781648
0.0102891
0.00345921
0.0034365
0.00340331
0.0033593
0.00330358
0.00323501
0.00315253
0.00305557
0.00294488
0.0028241
0.00270401
0.00261579
0.00263964
0.0029677
0.0038867
0.00531067
0.00675309
0.00787219
0.0102628
0.00344115
0.00341735
0.00338267
0.0033369
0.00327928
0.00320889
0.00312495
0.00302734
0.00291742
0.00279988
0.00268768
0.0026167
0.00267634
0.00308059
0.00407055
0.00549277
0.00687126
0.00791887
0.0102378
0.00342277
0.00339793
0.00336184
0.00331441
0.00325505
0.00318305
0.00309795
0.00300004
0.0028913
0.00277752
0.00267398
0.0026217
0.00272053
0.00320043
0.00425052
0.00565937
0.00697522
0.00795806
0.0102138
0.00340412
0.00337827
0.00334084
0.00329187
0.00323094
0.00315755
0.00307155
0.00297367
0.00286653
0.00275707
0.00266309
0.00263068
0.00277248
0.00332528
0.00442472
0.00581146
0.00706694
0.00799111
0.0101906
0.00338522
0.00335841
0.00331972
0.00326932
0.00320697
0.0031324
0.00304577
0.0029482
0.00284294
0.00273792
0.00265317
0.00264354
0.00283158
0.00345377
0.00459178
0.00595019
0.00714822
0.00801919
0.0101683
0.0033661
0.00333838
0.0032985
0.00324679
0.00318318
0.00310763
0.0030206
0.00292361
0.00282054
0.00272063
0.00264762
0.00266087
0.00289705
0.0035845
0.00475079
0.00607673
0.00722057
0.00804322
0.0101467
0.00334678
0.0033182
0.00327722
0.00322431
0.00315959
0.00308326
0.00299604
0.00289989
0.00279937
0.00270523
0.0026447
0.00268197
0.00297002
0.00371644
0.00490137
0.00619226
0.00728528
0.00806397
0.0101258
0.0033273
0.00329791
0.00325591
0.00320192
0.00313624
0.00305928
0.00297209
0.00287703
0.00277941
0.00269159
0.00264414
0.00270791
0.00304856
0.00384844
0.00504347
0.00629791
0.00734343
0.00808203
0.0101056
0.00330768
0.00327754
0.00323459
0.00317962
0.00311312
0.00303572
0.00294876
0.00285503
0.00276065
0.00267967
0.00264605
0.00273882
0.00313149
0.00397939
0.00517727
0.00639474
0.00739592
0.00809784
0.0100861
0.00328795
0.0032571
0.00321328
0.00315745
0.00309026
0.00301259
0.00292604
0.00283387
0.00274297
0.002669
0.00265053
0.00277442
0.00321816
0.00410831
0.00530308
0.00648372
0.00744359
0.00811184
0.0100672
0.00326813
0.00323662
0.00319202
0.00313542
0.00306768
0.00298987
0.0029039
0.00281345
0.00272614
0.00265936
0.00265761
0.00281446
0.00330799
0.00423445
0.00542129
0.00656573
0.00748708
0.00812431
0.010049
0.00324823
0.00321612
0.00317081
0.00311355
0.00304537
0.00296757
0.00288233
0.0027938
0.0027106
0.00265294
0.00266744
0.00285858
0.0034003
0.00435722
0.00553232
0.0066415
0.00752693
0.00813542
0.0100314
0.00322828
0.00319563
0.00314967
0.00309185
0.00302335
0.00294569
0.00286135
0.00277502
0.00269652
0.00264877
0.00268024
0.00290774
0.00349463
0.00447624
0.00563662
0.00671169
0.00756358
0.00814541
0.0100145
0.00320831
0.00317515
0.00312863
0.00307033
0.00300162
0.00292423
0.00284096
0.00275702
0.00268332
0.00264429
0.00269597
0.00296057
0.00359036
0.00459128
0.00573466
0.00677687
0.0075974
0.00815446
0.0099981
0.00318831
0.0031547
0.00310769
0.00304901
0.00298019
0.00290319
0.00282113
0.00273979
0.00267124
0.00264245
0.0027149
0.00301666
0.00368685
0.0047022
0.00582688
0.00683755
0.00762871
0.00816271
0.00998232
0.00316832
0.0031343
0.00308686
0.00302788
0.00295906
0.00288258
0.00280188
0.00272334
0.00266024
0.00264278
0.002737
0.00307581
0.00378353
0.00480893
0.00591373
0.00689417
0.0076578
0.00817028
0.00996709
0.00314835
0.00311397
0.00306617
0.00300696
0.00293823
0.00286237
0.00278312
0.0027074
0.00264946
0.00264461
0.00276206
0.00313778
0.00387989
0.00491146
0.0059956
0.00694713
0.00768492
0.00817726
0.00995241
0.00312841
0.00309371
0.00304561
0.00298626
0.00291771
0.00284256
0.00276491
0.0026924
0.00264151
0.00264836
0.00278997
0.00320224
0.00397551
0.00500985
0.00607286
0.00699679
0.00771027
0.00818372
0.00993827
0.00310851
0.00307354
0.00302519
0.00296577
0.00289749
0.00282316
0.0027473
0.00267844
0.00263507
0.00265406
0.0028211
0.00326895
0.00407004
0.00510419
0.00614586
0.00704344
0.00773403
0.00818974
0.00992462
0.00308866
0.00305346
0.00300493
0.00294551
0.00287757
0.00280419
0.00273029
0.00266525
0.00262885
0.0026618
0.00285515
0.00333761
0.00416318
0.0051946
0.00621491
0.00708736
0.00775636
0.00819535
0.00991147
0.00306889
0.00303349
0.00298483
0.00292547
0.00285796
0.00278563
0.00271381
0.00265267
0.00262322
0.00267148
0.00289174
0.00340788
0.00425471
0.00528121
0.0062803
0.00712878
0.00777739
0.00820061
0.00989879
0.00304918
0.00301364
0.00296489
0.00290566
0.00283867
0.00276748
0.00269789
0.00264085
0.00261882
0.00268311
0.00293073
0.00347941
0.00434444
0.00536419
0.00634231
0.00716791
0.00779724
0.00820556
0.00988657
0.00302957
0.0029939
0.00294512
0.00288609
0.00281968
0.00274972
0.00268239
0.00262929
0.0026165
0.00269689
0.00297205
0.00355188
0.00443221
0.00544369
0.00640117
0.00720495
0.00781601
0.00821022
0.00987478
0.00301004
0.00297429
0.00292553
0.00286675
0.00280099
0.00273232
0.00266734
0.00261875
0.00261546
0.00271277
0.00301559
0.00362499
0.0045179
0.00551987
0.00645712
0.00724005
0.0078338
0.00821464
0.00986341
0.00299062
0.00295482
0.00290612
0.00284764
0.00278261
0.00271535
0.00265315
0.00261066
0.00261591
0.00273071
0.00306122
0.00369847
0.00460144
0.00559289
0.00651037
0.00727339
0.00785069
0.00821883
0.00985244
0.0029713
0.00293548
0.00288689
0.00282877
0.00276453
0.00269883
0.00263958
0.00260238
0.00261756
0.00275091
0.00310883
0.00377208
0.00468278
0.0056629
0.00656109
0.00730509
0.00786675
0.00822283
0.00984187
0.0029521
0.00291629
0.00286785
0.00281015
0.00274678
0.00268273
0.00262652
0.00259471
0.0026205
0.00277316
0.00315828
0.00384561
0.00476189
0.00573005
0.00660947
0.00733527
0.00788205
0.00822665
0.00983166
0.00293302
0.00289725
0.00284899
0.00279176
0.00272934
0.00266705
0.00261404
0.00258805
0.00262485
0.00279731
0.00320937
0.00391886
0.00483877
0.00579448
0.00665565
0.00736405
0.00789665
0.00823031
0.00982181
0.00291406
0.00287836
0.00283033
0.00277362
0.00271221
0.00265176
0.00260196
0.00258142
0.00263045
0.00282327
0.00326191
0.00399165
0.00491343
0.00585633
0.00669978
0.00739152
0.0079106
0.00823383
0.00981231
0.00289522
0.00285962
0.00281186
0.00275572
0.0026954
0.0026369
0.00259057
0.00257616
0.00263744
0.00285102
0.00331573
0.00406382
0.00498591
0.00591575
0.00674199
0.00741778
0.00792395
0.00823723
0.00980315
0.00287652
0.00284104
0.00279359
0.00273807
0.00267887
0.00262227
0.00257895
0.00257218
0.00264592
0.00288051
0.00337063
0.00413524
0.00505624
0.00597285
0.00678242
0.00744292
0.00793675
0.0082405
0.0097943
0.00285796
0.00282263
0.00277551
0.00272065
0.00266265
0.00260821
0.0025695
0.00256942
0.00265591
0.00291171
0.00342645
0.00420578
0.00512446
0.00602775
0.00682116
0.007467
0.00794903
0.00824367
0.00978577
0.00283953
0.00280437
0.00275763
0.00270348
0.00264676
0.00259464
0.00256012
0.00256773
0.00266745
0.00294457
0.00348304
0.00427534
0.00519062
0.00608058
0.00685834
0.00749009
0.00796083
0.00824675
0.00977753
0.00282125
0.00278628
0.00273995
0.00268656
0.0026312
0.00258151
0.00255127
0.00256686
0.00268061
0.00297904
0.00354023
0.00434384
0.00525477
0.00613144
0.00689403
0.00751227
0.00797218
0.00824975
0.00976958
0.00280311
0.00276836
0.00272247
0.0026699
0.00261597
0.0025688
0.00254303
0.00256686
0.00269522
0.00301505
0.0035979
0.00441122
0.00531697
0.00618042
0.00692833
0.00753359
0.00798312
0.00825268
0.0097619
0.00278512
0.00275061
0.00270519
0.00265348
0.00260106
0.00255652
0.00253542
0.0025678
0.00271121
0.00305248
0.00365591
0.00447742
0.00537727
0.00622763
0.00696132
0.0075541
0.00799367
0.00825553
0.0097545
0.00276728
0.00273303
0.00268812
0.00263732
0.00258648
0.00254472
0.00252857
0.00256977
0.00272858
0.00309125
0.00371412
0.0045424
0.00543575
0.00627315
0.00699308
0.00757385
0.00800386
0.00825833
0.00974735
0.00274958
0.00271562
0.00267126
0.00262141
0.00257221
0.00253319
0.00252124
0.00257257
0.00274731
0.00313124
0.00377241
0.00460614
0.00549245
0.00631707
0.00702368
0.00759289
0.00801371
0.00826108
0.00974045
0.00273204
0.00269839
0.00265459
0.00260575
0.00255824
0.00252212
0.00251548
0.0025764
0.00276736
0.00317236
0.00383066
0.00466861
0.00554745
0.00635947
0.00705318
0.00761127
0.00802324
0.00826378
0.00973379
0.00271466
0.00268133
0.00263814
0.00259033
0.0025446
0.00251157
0.00251071
0.00258134
0.00278875
0.00321452
0.00388878
0.00472981
0.00560079
0.00640042
0.00708164
0.00762901
0.00803247
0.00826644
0.00972737
0.00269743
0.00266444
0.00262189
0.00257517
0.0025313
0.00250156
0.0025068
0.00258741
0.00281145
0.0032576
0.00394666
0.00478972
0.00565255
0.00644001
0.00710912
0.00764615
0.00804142
0.00826906
0.00972116
0.00268035
0.00264774
0.00260585
0.00256027
0.00251835
0.0024921
0.00250373
0.0025947
0.00283545
0.00330153
0.00400422
0.00484835
0.00570278
0.00647828
0.00713567
0.00766273
0.00805011
0.00827165
0.00971518
0.00266344
0.00263121
0.00259001
0.00254563
0.00250576
0.00248314
0.00250119
0.00260308
0.00286073
0.00334621
0.00406138
0.0049057
0.00575153
0.00651531
0.00716134
0.00767879
0.00805856
0.0082742
0.0097094
0.00264668
0.00261485
0.00257439
0.00253125
0.00249353
0.00247466
0.00249927
0.00261253
0.00288723
0.00339155
0.00411808
0.00496178
0.00579886
0.00655117
0.00718619
0.00769434
0.00806677
0.00827674
0.00970383
0.00263008
0.00259868
0.00255898
0.00251714
0.00248164
0.00246663
0.00249804
0.00262303
0.00291492
0.00343747
0.00417425
0.00501661
0.00584482
0.00658589
0.00721024
0.00770942
0.00807476
0.00827925
0.00969846
0.00261364
0.00258268
0.00254378
0.00250331
0.00247015
0.00245922
0.00249756
0.00263457
0.00294373
0.00348387
0.00422986
0.00507021
0.00588947
0.00661954
0.00723355
0.00772406
0.00808255
0.00828175
0.00969327
0.00259736
0.00256687
0.00252879
0.00248972
0.00245887
0.00245126
0.00249769
0.00264715
0.00297362
0.00353067
0.00428484
0.00512258
0.00593286
0.00665216
0.00725614
0.00773826
0.00809015
0.00828423
0.00968827
0.00258124
0.00255123
0.00251402
0.00247639
0.00244791
0.00244443
0.00249855
0.00266075
0.00300452
0.0035778
0.00433917
0.00517376
0.00597502
0.0066838
0.00727805
0.00775207
0.00809756
0.00828669
0.00968345
0.00256528
0.00253578
0.00249945
0.00246331
0.00243734
0.00243845
0.00250021
0.00267537
0.00303639
0.00362516
0.00439281
0.00522377
0.00601602
0.00671451
0.00729933
0.00776549
0.0081048
0.00828915
0.0096788
0.00254948
0.00252051
0.0024851
0.0024505
0.0024272
0.00243323
0.00250273
0.00269101
0.00306916
0.00367269
0.00444573
0.00527264
0.00605589
0.00674433
0.00731998
0.00777855
0.00811188
0.00829159
0.00967432
0.00253385
0.00250541
0.00247096
0.00243798
0.00241752
0.0024288
0.00250615
0.00270768
0.00310278
0.00372032
0.00449791
0.00532038
0.00609469
0.0067733
0.00734006
0.00779126
0.0081188
0.00829403
0.00967001
0.00251838
0.0024905
0.00245704
0.00242575
0.00240825
0.0024247
0.00251042
0.00272537
0.00313721
0.00376798
0.00454934
0.00536703
0.00613244
0.00680146
0.00735958
0.00780365
0.00812558
0.00829647
0.00966585
0.00250307
0.00247578
0.00244334
0.00241382
0.00239936
0.00242103
0.00251551
0.00274407
0.00317238
0.00381561
0.00459999
0.00541261
0.00616919
0.00682883
0.00737857
0.00781572
0.00813222
0.0082989
0.00966184
0.00248792
0.00246123
0.00242987
0.00240216
0.00239083
0.00241783
0.0025214
0.00276375
0.00320824
0.00386315
0.00464986
0.00545715
0.00620498
0.00685546
0.00739705
0.0078275
0.00813873
0.00830133
0.00965799
0.00247293
0.00244688
0.00241662
0.00239081
0.00238275
0.00241518
0.0025281
0.00278438
0.00324473
0.00391057
0.00469894
0.00550068
0.00623984
0.00688138
0.00741505
0.00783899
0.00814511
0.00830376
0.00965427
0.00245811
0.0024327
0.00240359
0.00237971
0.00237458
0.00241304
0.00253559
0.00280594
0.00328181
0.0039578
0.00474722
0.00554321
0.0062738
0.00690662
0.00743259
0.00785021
0.00815138
0.00830619
0.0096507
0.00244346
0.00241872
0.00239078
0.0023688
0.00236658
0.00241138
0.00254388
0.0028284
0.00331941
0.00400481
0.00479471
0.00558479
0.00630691
0.0069312
0.00744968
0.00786118
0.00815754
0.00830862
0.00964726
0.00242897
0.00240491
0.00237817
0.00235818
0.00235943
0.0024103
0.00255295
0.00285173
0.00335747
0.00405156
0.00484141
0.00562543
0.0063392
0.00695516
0.00746636
0.0078719
0.00816359
0.00831105
0.00964396
0.00241464
0.00239129
0.00236578
0.00234785
0.00235275
0.0024098
0.00256282
0.00287589
0.00339595
0.004098
0.00488732
0.00566516
0.00637068
0.00697851
0.00748263
0.00788239
0.00816954
0.00831349
0.00964078
0.00240047
0.00237785
0.00235361
0.00233791
0.0023471
0.00240999
0.00257349
0.00290087
0.00343479
0.00414412
0.00493244
0.00570401
0.0064014
0.00700129
0.00749851
0.00789265
0.0081754
0.00831594
0.00963773
0.00238647
0.0023646
0.00234169
0.00232832
0.00234175
0.00241087
0.00258497
0.00292662
0.00347393
0.00418987
0.00497679
0.005742
0.00643138
0.00702351
0.00751403
0.0079027
0.00818117
0.00831838
0.00963481
0.00237263
0.00235154
0.00233001
0.00231906
0.00233665
0.00241239
0.00259727
0.00295313
0.00351334
0.00423524
0.00502036
0.00577915
0.00646065
0.0070452
0.00752919
0.00791254
0.00818685
0.00832084
0.009632
0.00235896
0.00233866
0.00231857
0.00231011
0.00233187
0.00241455
0.00261037
0.00298035
0.00355296
0.00428019
0.00506316
0.0058155
0.00648923
0.00706638
0.007544
0.00792219
0.00819245
0.0083233
0.0096293
0.00234545
0.00232598
0.00230736
0.00230144
0.00232746
0.00241732
0.00262426
0.00300825
0.00359276
0.00432471
0.00510522
0.00585106
0.00651715
0.00708707
0.0075585
0.00793165
0.00819797
0.00832577
0.00962672
0.00233211
0.00231349
0.00229641
0.00229315
0.00232345
0.00242071
0.00263894
0.00303681
0.00363268
0.00436878
0.00514652
0.00588586
0.00654443
0.00710729
0.00757267
0.00794093
0.00820341
0.00832824
0.00962425
0.00231894
0.0023012
0.00228566
0.00228467
0.00231985
0.00242472
0.00265439
0.00306599
0.00367269
0.00441239
0.0051871
0.00591992
0.00657109
0.00712705
0.00758655
0.00795004
0.00820879
0.00833073
0.00962188
0.00230593
0.00228908
0.00227507
0.00227638
0.00231662
0.00242935
0.00267059
0.00309574
0.00371274
0.00445553
0.00522695
0.00595326
0.00659717
0.00714638
0.00760014
0.00795898
0.0082141
0.00833322
0.00961962
0.00229308
0.00227715
0.0022647
0.0022687
0.00231379
0.00243459
0.00268754
0.00312604
0.00375281
0.00449817
0.00526609
0.00598591
0.00662266
0.00716528
0.00761345
0.00796777
0.00821934
0.00833572
0.00961746
0.0022804
0.0022654
0.00225457
0.00226151
0.00231141
0.00244044
0.00270521
0.00315685
0.00379286
0.00454032
0.00530454
0.00601787
0.00664761
0.00718378
0.0076265
0.0079764
0.00822452
0.00833823
0.00961539
0.00226788
0.00225383
0.00224476
0.00225524
0.00230957
0.00244693
0.0027236
0.00318813
0.00383286
0.00458196
0.0053423
0.00604918
0.00667202
0.0072019
0.00763928
0.00798489
0.00822965
0.00834076
0.00961342
0.00225552
0.00224248
0.00223525
0.00224912
0.00230827
0.00245406
0.00274267
0.00321984
0.00387277
0.0046231
0.00537939
0.00607986
0.00669591
0.00721963
0.00765182
0.00799323
0.00823472
0.00834329
0.00961155
0.00224334
0.00223132
0.00222601
0.00224318
0.00230748
0.00246183
0.00276243
0.00325196
0.00391258
0.00466372
0.00541582
0.00610991
0.00671931
0.007237
0.00766413
0.00800145
0.00823974
0.00834583
0.00960977
0.00223132
0.00222038
0.00221702
0.00223747
0.00230717
0.00247025
0.00278285
0.00328444
0.00395224
0.00470383
0.00545161
0.00613936
0.00674222
0.00725402
0.0076762
0.00800953
0.0082447
0.00834838
0.00960807
0.00221947
0.00220963
0.00220826
0.00223204
0.00230735
0.00247931
0.00280392
0.00331726
0.00399174
0.00474341
0.00548676
0.00616823
0.00676466
0.00727071
0.00768805
0.00801749
0.00824962
0.00835094
0.00960646
0.00220779
0.00219909
0.00219981
0.00222693
0.002308
0.00248902
0.00282562
0.00335038
0.00403106
0.00478248
0.0055213
0.00619653
0.00678666
0.00728707
0.00769969
0.00802532
0.00825449
0.00835351
0.00960494
0.00219628
0.00218872
0.00219116
0.00222213
0.00230914
0.00249935
0.00284792
0.00338377
0.00407017
0.00482102
0.00555523
0.00622429
0.00680822
0.00730311
0.00771112
0.00803305
0.00825932
0.0083561
0.0096035
0.00218493
0.00217851
0.00218275
0.00221763
0.00231076
0.00251032
0.00287082
0.0034174
0.00410906
0.00485905
0.00558856
0.0062515
0.00682935
0.00731885
0.00772236
0.00804066
0.0082641
0.00835869
0.00960214
0.00217374
0.00216845
0.00217456
0.00221338
0.00231286
0.00252191
0.00289427
0.00345124
0.00414771
0.00489656
0.00562132
0.0062782
0.00685008
0.0073343
0.0077334
0.00804816
0.00826884
0.0083613
0.00960085
0.00216272
0.00215862
0.00216721
0.00220951
0.00231544
0.00253411
0.00291827
0.00348526
0.0041861
0.00493356
0.0056535
0.0063044
0.00687041
0.00734946
0.00774426
0.00805557
0.00827355
0.00836391
0.00959965
0.00215186
0.00214904
0.00216038
0.00220607
0.00231851
0.00254692
0.00294279
0.00351942
0.00422422
0.00497005
0.00568514
0.00633011
0.00689036
0.00736435
0.00775495
0.00806287
0.00827821
0.00836654
0.00959852
0.00214117
0.00213972
0.00215366
0.00220304
0.00232209
0.00256034
0.00296781
0.00355371
0.00426206
0.00500603
0.00571623
0.00635534
0.00690993
0.00737898
0.00776546
0.00807007
0.00828284
0.00836918
0.00959746
0.00213067
0.00213061
0.00214709
0.00220041
0.00232618
0.00257435
0.0029933
0.00358809
0.0042996
0.00504151
0.00574678
0.00638011
0.00692915
0.00739335
0.0077758
0.00807719
0.00828744
0.00837182
0.00959647
0.00212034
0.00212171
0.0021407
0.00219815
0.00233079
0.00258896
0.00301924
0.00362255
0.00433684
0.0050765
0.00577683
0.00640443
0.00694802
0.00740746
0.00778598
0.00808421
0.008292
0.00837448
0.00959556
0.00211019
0.00211301
0.00213453
0.00219628
0.00233591
0.00260414
0.00304561
0.00365705
0.00437376
0.00511099
0.00580636
0.00642831
0.00696655
0.00742134
0.00779601
0.00809115
0.00829653
0.00837715
0.00959471
0.00210022
0.00210457
0.0021286
0.00219478
0.00234154
0.0026199
0.00307238
0.00369158
0.00441036
0.00514499
0.0058354
0.00645177
0.00698475
0.00743499
0.00780588
0.008098
0.00830103
0.00837983
0.00959393
0.00209041
0.00209595
0.00212294
0.00219366
0.00234768
0.00263622
0.00309953
0.00372611
0.00444662
0.00517851
0.00586395
0.00647482
0.00700264
0.00744841
0.00781561
0.00810477
0.0083055
0.00838253
0.00959321
0.00208071
0.00208742
0.00211745
0.00219291
0.00235434
0.0026531
0.00312704
0.00376062
0.00448256
0.00521156
0.00589203
0.00649746
0.00702021
0.00746161
0.0078252
0.00811147
0.00830995
0.00838523
0.00959256
0.00207117
0.00207932
0.0021122
0.00219253
0.00236151
0.00267051
0.00315489
0.00379509
0.00451815
0.00524414
0.00591965
0.00651972
0.00703749
0.00747459
0.00783465
0.00811809
0.00831436
0.00838794
0.00959197
0.00206183
0.00207197
0.00210727
0.00219254
0.0023692
0.00268846
0.00318305
0.00382951
0.00455339
0.00527626
0.00594682
0.0065416
0.00705447
0.00748738
0.00784397
0.00812464
0.00831875
0.00839067
0.00959144
0.00205272
0.00206479
0.00210268
0.00219294
0.00237739
0.00270692
0.0032115
0.00386385
0.00458829
0.00530792
0.00597355
0.0065631
0.00707118
0.00749996
0.00785316
0.00813111
0.00832311
0.0083934
0.00959096
0.0020438
0.0020577
0.00209839
0.00219373
0.00238608
0.00272589
0.00324021
0.0038981
0.00462283
0.00533913
0.00599985
0.00658425
0.0070876
0.00751235
0.00786222
0.00813752
0.00832745
0.00839614
0.00959055
0.00203507
0.00205075
0.00209442
0.00219493
0.00239529
0.00274534
0.00326917
0.00393225
0.00465702
0.0053699
0.00602572
0.00660504
0.00710376
0.00752455
0.00787116
0.00814386
0.00833177
0.0083989
0.00959019
0.00202651
0.00204397
0.00209074
0.00219653
0.00240499
0.00276527
0.00329836
0.00396627
0.00469085
0.00540024
0.00605118
0.0066255
0.00711967
0.00753656
0.00787999
0.00815013
0.00833607
0.00840166
0.00958989
0.00201815
0.00203737
0.00208735
0.00219853
0.00241521
0.00278567
0.00332774
0.00400016
0.00472432
0.00543014
0.00607625
0.00664562
0.00713532
0.0075484
0.0078887
0.00815635
0.00834034
0.00840444
0.00958965
0.00200985
0.00203099
0.00208426
0.00220095
0.00242592
0.00280651
0.00335732
0.0040339
0.00475744
0.00545962
0.00610091
0.00666542
0.00715072
0.00756007
0.0078973
0.0081625
0.00834459
0.00840722
0.00958945
0.0020015
0.00202478
0.00208147
0.00220377
0.00243712
0.00282778
0.00338705
0.00406749
0.00479019
0.00548869
0.0061252
0.00668491
0.00716589
0.00757157
0.0079058
0.00816859
0.00834882
0.00841002
0.00958931
0.00199334
0.00201874
0.00207898
0.00220701
0.00244882
0.00284947
0.00341692
0.0041009
0.00482259
0.00551735
0.00614911
0.00670408
0.00718082
0.00758291
0.00791419
0.00817463
0.00835303
0.00841282
0.00958922
0.00198549
0.00201292
0.00207678
0.00221066
0.00246101
0.00287157
0.00344692
0.00413414
0.00485463
0.0055456
0.00617265
0.00672296
0.00719553
0.00759409
0.00792247
0.00818061
0.00835722
0.00841563
0.00958918
0.00197818
0.00200735
0.00207488
0.00221472
0.00247367
0.00289405
0.00347703
0.00416718
0.00488631
0.00557346
0.00619583
0.00674155
0.00721002
0.00760511
0.00793066
0.00818654
0.00836139
0.00841846
0.00958919
0.00197104
0.00200203
0.00207329
0.0022192
0.00248682
0.0029169
0.00350722
0.00420003
0.00491764
0.00560093
0.00621867
0.00675985
0.00722429
0.00761598
0.00793876
0.00819241
0.00836555
0.00842129
0.00958925
0.00196401
0.00199696
0.00207201
0.00222409
0.00250043
0.0029401
0.00353749
0.00423267
0.00494862
0.00562802
0.00624116
0.00677787
0.00723836
0.00762671
0.00794675
0.00819824
0.00836969
0.00842413
0.00958935
0.00195712
0.00199213
0.00207104
0.0022294
0.00251451
0.00296365
0.00356781
0.0042651
0.00497924
0.00565474
0.00626331
0.00679563
0.00725222
0.0076373
0.00795466
0.00820402
0.00837382
0.00842699
0.0095895
0.00195038
0.00198754
0.0020704
0.00223513
0.00252905
0.00298752
0.00359817
0.00429731
0.00500951
0.00568109
0.00628514
0.00681312
0.00726589
0.00764774
0.00796248
0.00820975
0.00837793
0.00842985
0.0095897
0.00194381
0.00198319
0.00207008
0.00224128
0.00254404
0.00301169
0.00362855
0.0043293
0.00503944
0.00570707
0.00630665
0.00683035
0.00727936
0.00765806
0.00797022
0.00821543
0.00838203
0.00843272
0.00958993
0.00193741
0.00197908
0.00207008
0.00224784
0.00255947
0.00303615
0.00365894
0.00436105
0.00506902
0.0057327
0.00632785
0.00684733
0.00729265
0.00766824
0.00797787
0.00822107
0.00838611
0.0084356
0.00959022
0.00193119
0.00197522
0.00207041
0.00225483
0.00257533
0.00306089
0.00368933
0.00439257
0.00509826
0.00575797
0.00634873
0.00686407
0.00730575
0.00767829
0.00798544
0.00822666
0.00839016
0.00843849
0.00959054
0.00192516
0.00197159
0.00207106
0.00226223
0.00259163
0.00308589
0.0037197
0.00442385
0.00512716
0.00578291
0.00636932
0.00688057
0.00731867
0.00768822
0.00799293
0.0082322
0.00839421
0.00844138
0.0095909
0.00191932
0.00196821
0.00207205
0.00227005
0.00260833
0.00311113
0.00375003
0.00445488
0.00515572
0.00580751
0.00638962
0.00689683
0.00733142
0.00769803
0.00800034
0.00823771
0.00839824
0.00844428
0.00959131
0.00191366
0.00196507
0.00207336
0.00227829
0.00262545
0.0031366
0.00378032
0.00448567
0.00518395
0.00583177
0.00640962
0.00691287
0.007344
0.00770771
0.00800767
0.00824317
0.00840225
0.00844719
0.00959175
0.0019082
0.00196219
0.00207502
0.00228694
0.00264297
0.00316227
0.00381056
0.0045162
0.00521185
0.00585571
0.00642935
0.00692868
0.00735641
0.00771728
0.00801493
0.00824859
0.00840625
0.0084501
0.00959223
0.00190292
0.00195955
0.002077
0.00229601
0.00266087
0.00318815
0.00384073
0.00454648
0.00523943
0.00587933
0.0064488
0.00694427
0.00736865
0.00772674
0.00802211
0.00825397
0.00841024
0.00845302
0.00959275
0.00189785
0.00195716
0.00207933
0.00230549
0.00267916
0.00321421
0.00387083
0.00457651
0.00526668
0.00590263
0.00646798
0.00695965
0.00738074
0.00773608
0.00802923
0.00825931
0.00841421
0.00845595
0.00959331
0.00189296
0.00195503
0.00208199
0.00231538
0.00269781
0.00324043
0.00390084
0.00460628
0.00529361
0.00592563
0.0064869
0.00697482
0.00739268
0.00774532
0.00803627
0.00826461
0.00841817
0.00845889
0.0095939
0.00188828
0.00195316
0.002085
0.00232568
0.00271682
0.00326681
0.00393075
0.00463579
0.00532023
0.00594832
0.00650556
0.00698979
0.00740446
0.00775445