# Region type : patch outlet
# Faces         : 20
# Area          : 4.36243709e-07
# Scale factor  : 1.00000000e+00
# Weight field  : phi
# Time          	weightedAverage(p)	weightedAverage(U)	weightedAverage(T)
10100           	1.01325000e+05	(1.06097438e+00 4.03134401e-07 1.24413158e-12)	3.99982895e+02
10200           	1.01325000e+05	(1.06097167e+00 8.10330581e-07 1.24552652e-12)	3.99982926e+02
10300           	1.01325000e+05	(1.06097428e+00 1.51476217e-06 1.22899692e-12)	3.99982926e+02
10400           	1.01325000e+05	(1.06097950e+00 1.43122597e-06 1.23051717e-12)	3.99982926e+02
10500           	1.01325000e+05	(1.06098291e+00 4.35794335e-07 1.25156513e-12)	3.99982941e+02
10600           	1.01325000e+05	(1.06098117e+00 -4.00783472e-07 1.24934751e-12)	3.99982971e+02
10700           	1.01325000e+05	(1.06097816e+00 -6.03103626e-07 1.24886695e-12)	3.99982971e+02
10800           	1.01325000e+05	(1.06097585e+00 -2.24838282e-07 1.24936843e-12)	3.99982971e+02
10900           	1.01325000e+05	(1.06097670e+00 2.91832061e-07 1.25022858e-12)	3.99982971e+02
11000           	1.01325000e+05	(1.06097806e+00 -2.29408357e-08 1.24601252e-12)	3.99982971e+02
11100           	1.01325000e+05	(1.06097689e+00 -1.36915407e-07 1.25266813e-12)	3.99982971e+02
11200           	1.01325000e+05	(1.06097683e+00 9.05292491e-08 1.24236874e-12)	3.99982971e+02
11300           	1.01325000e+05	(1.06097739e+00 -3.83482662e-08 1.23630882e-12)	3.99982971e+02
11400           	1.01325000e+05	(1.06097710e+00 5.02583543e-08 1.24479795e-12)	3.99982971e+02
11500           	1.01325000e+05	(1.06097732e+00 2.80923285e-09 1.26030568e-12)	3.99982971e+02
11600           	1.01325000e+05	(1.06097741e+00 -1.54198929e-10 1.21786469e-12)	3.99982971e+02
11700           	1.01325000e+05	(1.06097725e+00 -2.05313185e-08 1.26183068e-12)	3.99982971e+02
11800           	1.01325000e+05	(1.06097725e+00 -1.12261395e-08 1.23836406e-12)	3.99982971e+02
11900           	1.01325000e+05	(1.06097715e+00 -1.34895507e-08 1.23132299e-12)	3.99982971e+02
12000           	1.01325000e+05	(1.06097731e+00 2.77796864e-08 1.22779279e-12)	3.99982971e+02
12100           	1.01325000e+05	(1.06097734e+00 -4.03681301e-08 1.24525910e-12)	3.99982971e+02
12200           	1.01325000e+05	(1.06097709e+00 2.98377535e-08 1.24562780e-12)	3.99982971e+02
12300           	1.01325000e+05	(1.06097744e+00 1.79717371e-08 1.25552725e-12)	3.99982971e+02
12400           	1.01325000e+05	(1.06097734e+00 -5.22857165e-08 1.24251191e-12)	3.99982971e+02
12500           	1.01325000e+05	(1.06097700e+00 2.14916442e-08 1.24805310e-12)	3.99982971e+02
12600           	1.01325000e+05	(1.06097749e+00 7.66364884e-08 1.22667752e-12)	3.99982971e+02
12700           	1.01325000e+05	(1.06097758e+00 -7.20522473e-09 1.23023440e-12)	3.99982971e+02
12800           	1.01325000e+05	(1.06097749e+00 -2.80701113e-08 1.25209808e-12)	3.99982971e+02
12900           	1.01325000e+05	(1.06097728e+00 -2.20603370e-08 1.25062521e-12)	3.99982971e+02
13000           	1.01325000e+05	(1.06097743e+00 -3.46050867e-08 1.27244973e-12)	3.99982971e+02
13100           	1.01325000e+05	(1.06097709e+00 -2.60255099e-08 1.24659949e-12)	3.99982971e+02
13200           	1.01325000e+05	(1.06097732e+00 6.00869107e-08 1.23341322e-12)	3.99982971e+02
13300           	1.01325000e+05	(1.06097769e+00 -2.93461548e-08 1.25479372e-12)	3.99982971e+02
13400           	1.01325000e+05	(1.06097727e+00 -1.29179068e-07 1.25251739e-12)	3.99982971e+02
13500           	1.01325000e+05	(1.06097690e+00 -4.18816946e-08 1.24252444e-12)	3.99982971e+02
13600           	1.01325000e+05	(1.06097712e+00 -2.65259101e-08 1.26022077e-12)	3.99982971e+02
13700           	1.01325000e+05	(1.06097703e+00 -3.14797964e-08 1.25187062e-12)	3.99982971e+02
13800           	1.01325000e+05	(1.06097692e+00 -2.42093383e-09 1.25793102e-12)	3.99982971e+02
13900           	1.01325000e+05	(1.06097689e+00 4.84745945e-08 1.24868565e-12)	3.99982971e+02
14000           	1.01325000e+05	(1.06097718e+00 8.29065273e-08 1.24359501e-12)	3.99982971e+02
14100           	1.01325000e+05	(1.06097745e+00 2.17083625e-08 1.24571691e-12)	3.99982971e+02
14200           	1.01325000e+05	(1.06097733e+00 8.75734315e-09 1.25517672e-12)	3.99982971e+02
14300           	1.01325000e+05	(1.06097751e+00 -3.12311521e-09 1.25778128e-12)	3.99982971e+02
14400           	1.01325000e+05	(1.06097728e+00 -8.10519350e-08 1.22696249e-12)	3.99982971e+02
14500           	1.01325000e+05	(1.06097700e+00 -3.03055190e-08 1.25866231e-12)	3.99982971e+02
14600           	1.01325000e+05	(1.06097704e+00 -1.61925117e-08 1.24185358e-12)	3.99982971e+02
14700           	1.01325000e+05	(1.06097703e+00 4.09498730e-08 1.24521607e-12)	3.99982971e+02
14800           	1.01325000e+05	(1.06097745e+00 5.92660235e-08 1.24621271e-12)	3.99982971e+02
14900           	1.01325000e+05	(1.06097745e+00 -4.45579929e-08 1.24976649e-12)	3.99982971e+02
15000           	1.01325000e+05	(1.06097699e+00 1.36342421e-08 1.23088063e-12)	3.99982971e+02
15100           	1.01325000e+05	(1.06097734e+00 8.69252605e-08 1.26606019e-12)	3.99982971e+02
15200           	1.01325000e+05	(1.06097766e+00 3.12378753e-08 1.23911949e-12)	3.99982971e+02
15300           	1.01325000e+05	(1.06097773e+00 6.58618578e-09 1.26487526e-12)	3.99982971e+02
15400           	1.01325000e+05	(1.06097787e+00 -3.52775807e-08 1.24253425e-12)	3.99982971e+02
15500           	1.01325000e+05	(1.06097777e+00 -1.26423559e-07 1.24642295e-12)	3.99982971e+02
15600           	1.01325000e+05	(1.06097713e+00 -1.44142612e-07 1.25218611e-12)	3.99982971e+02
15700           	1.01325000e+05	(1.06097676e+00 1.74770033e-08 1.25379049e-12)	3.99982971e+02
15800           	1.01325000e+05	(1.06097736e+00 1.08060582e-07 1.22152979e-12)	3.99982971e+02
15900           	1.01325000e+05	(1.06097778e+00 -1.19449227e-08 1.24913411e-12)	3.99982971e+02
16000           	1.01325000e+05	(1.06097735e+00 -1.04126071e-07 1.24485772e-12)	3.99982971e+02
16100           	1.01325000e+05	(1.06097672e+00 -4.59888532e-08 1.23563260e-12)	3.99982971e+02
16200           	1.01325000e+05	(1.06097657e+00 9.53598247e-08 1.24509459e-12)	3.99982971e+02
16300           	1.01325000e+05	(1.06097703e+00 1.87394319e-07 1.24291021e-12)	3.99982971e+02
16400           	1.01325000e+05	(1.06097771e+00 1.30610717e-07 1.25345341e-12)	3.99982971e+02
16500           	1.01325000e+05	(1.06097769e+00 -2.04504737e-08 1.24622429e-12)	3.99982971e+02
16600           	1.01325000e+05	(1.06097707e+00 -1.25891231e-08 1.25607492e-12)	3.99982971e+02
16700           	1.01325000e+05	(1.06097692e+00 1.07589149e-07 1.24974666e-12)	3.99982971e+02
16800           	1.01325000e+05	(1.06097733e+00 1.73213309e-07 1.23491724e-12)	3.99982971e+02
16900           	1.01325000e+05	(1.06097789e+00 1.15015999e-07 1.22455215e-12)	3.99982971e+02
17000           	1.01325000e+05	(1.06097804e+00 -4.08927918e-08 1.26257809e-12)	3.99982971e+02
17100           	1.01325000e+05	(1.06097748e+00 -1.50155232e-07 1.24451906e-12)	3.99982971e+02
17200           	1.01325000e+05	(1.06097680e+00 -1.14557815e-07 1.25145762e-12)	3.99982971e+02
17300           	1.01325000e+05	(1.06097646e+00 3.30813172e-09 1.24988544e-12)	3.99982971e+02
17400           	1.01325000e+05	(1.06097678e+00 1.24290591e-07 1.25086958e-12)	3.99982971e+02
17500           	1.01325000e+05	(1.06097729e+00 5.39136117e-08 1.24825225e-12)	3.99982971e+02
17600           	1.01325000e+05	(1.06097687e+00 2.73015542e-09 1.26162898e-12)	3.99982971e+02
17700           	1.01325000e+05	(1.06097673e+00 1.82784465e-07 1.23104900e-12)	3.99982971e+02
17800           	1.01325000e+05	(1.06097779e+00 2.31420038e-07 1.25138822e-12)	3.99982971e+02
17900           	1.01325000e+05	(1.06097850e+00 5.32213399e-10 1.24765157e-12)	3.99982971e+02
18000           	1.01325000e+05	(1.06097809e+00 -2.12670631e-07 1.24817339e-12)	3.99982971e+02
18100           	1.01325000e+05	(1.06097711e+00 -2.78891440e-07 1.23815214e-12)	3.99982971e+02
18200           	1.01325000e+05	(1.06097618e+00 -8.80874120e-08 1.22761980e-12)	3.99982971e+02
18300           	1.01325000e+05	(1.06097671e+00 1.58854176e-07 1.25900814e-12)	3.99982971e+02
18400           	1.01325000e+05	(1.06097768e+00 3.06314289e-08 1.24597982e-12)	3.99982971e+02
18500           	1.01325000e+05	(1.06097703e+00 -7.91126290e-08 1.25056400e-12)	3.99982971e+02
18600           	1.01325000e+05	(1.06097669e+00 1.21950190e-07 1.24853186e-12)	3.99982971e+02
18700           	1.01325000e+05	(1.06097755e+00 1.21112464e-07 1.25437308e-12)	3.99982971e+02
18800           	1.01325000e+05	(1.06097745e+00 -1.14296435e-07 1.24760912e-12)	3.99982971e+02
18900           	1.01325000e+05	(1.06097623e+00 -1.43641319e-07 1.26020062e-12)	3.99982971e+02
19000           	1.01325000e+05	(1.06097558e+00 4.37506603e-08 1.25651495e-12)	3.99982971e+02
19100           	1.01325000e+05	(1.06097607e+00 1.69004937e-07 1.24892989e-12)	3.99982971e+02
19200           	1.01325000e+05	(1.06097663e+00 5.00973461e-08 1.24141507e-12)	3.99982971e+02
19300           	1.01325000e+05	(1.06097637e+00 -2.10332655e-08 1.24017115e-12)	3.99982971e+02
19400           	1.01325000e+05	(1.06097640e+00 2.07898204e-08 1.24412802e-12)	3.99982971e+02
19500           	1.01325000e+05	(1.06097684e+00 -6.97944355e-08 1.24873182e-12)	3.99982971e+02
19600           	1.01325000e+05	(1.06097655e+00 -2.79610511e-07 1.25009590e-12)	3.99982971e+02
19700           	1.01325000e+05	(1.06097504e+00 -3.16238231e-07 1.25367463e-12)	3.99982971e+02
19800           	1.01325000e+05	(1.06097380e+00 7.22650642e-08 1.26493445e-12)	3.99982971e+02
19900           	1.01325000e+05	(1.06097535e+00 4.42083512e-07 1.23245112e-12)	3.99982971e+02
20000           	1.01325000e+05	(1.06097730e+00 2.19798555e-08 1.24577547e-12)	3.99982971e+02
20100           	1.01325000e+05	(1.06097518e+00 -3.12380826e-07 1.24773412e-12)	3.99982971e+02
20200           	1.01325000e+05	(1.06097276e+00 4.56408907e-07 1.23747125e-12)	3.99982971e+02
20300           	1.01325000e+05	(1.06097643e+00 1.52864540e-06 1.26769808e-12)	3.99982971e+02
20400           	1.01325000e+05	(1.06098508e+00 8.34881915e-07 1.23813729e-12)	3.99982971e+02
20500           	1.01325000e+05	(1.06098524e+00 -1.86684315e-06 1.25596161e-12)	3.99982971e+02
20600           	1.01325000e+05	(1.06096980e+00 -2.04598216e-06 1.23073676e-12)	3.99982971e+02
20700           	1.01325000e+05	(1.06096554e+00 2.03765914e-06 1.25025896e-12)	3.99982971e+02
20800           	1.01325000e+05	(1.06098722e+00 2.34340621e-06 1.24228182e-12)	3.99982971e+02
20900           	1.01325000e+05	(1.06098723e+00 -3.30518147e-06 1.23836478e-12)	3.99982971e+02
21000           	1.01325000e+05	(1.06096015e+00 -4.99328825e-07 1.26333864e-12)	3.99982971e+02
21100           	1.01325000e+05	(1.06098200e+00 3.68011196e-06 1.26364028e-12)	3.99982971e+02
21200           	1.01325000e+05	(1.06098733e+00 -3.26041090e-06 1.24843559e-12)	3.99982971e+02
21300           	1.01325000e+05	(1.06096486e+00 9.02103460e-07 1.24640169e-12)	3.99982971e+02
21400           	1.01325000e+05	(1.06098385e+00 3.46575979e-07 1.24456152e-12)	3.99982971e+02
21500           	1.01325000e+05	(1.06097496e+00 -3.05160888e-07 1.24778095e-12)	3.99982971e+02
21600           	1.01325000e+05	(1.06097802e+00 2.47592458e-07 1.25320496e-12)	3.99982971e+02
21700           	1.01325000e+05	(1.06097762e+00 -7.93750624e-08 1.25050212e-12)	3.99982971e+02
21800           	1.01325000e+05	(1.06097733e+00 -9.02843114e-08 1.24300130e-12)	3.99982971e+02
21900           	1.01325000e+05	(1.06097686e+00 -4.40158813e-08 1.26989464e-12)	3.99982971e+02
22000           	1.01325000e+05	(1.06097693e+00 2.56719107e-08 1.25018276e-12)	3.99982971e+02
22100           	1.01325000e+05	(1.06097705e+00 5.49950668e-08 1.25355061e-12)	3.99982971e+02
22200           	1.01325000e+05	(1.06097732e+00 7.05086030e-08 1.24867280e-12)	3.99982971e+02
22300           	1.01325000e+05	(1.06097763e+00 -1.63187241e-08 1.26110368e-12)	3.99982971e+02
22400           	1.01325000e+05	(1.06097727e+00 -1.08414756e-07 1.23901235e-12)	3.99982971e+02
22500           	1.01325000e+05	(1.06097678e+00 -5.19814069e-08 1.24256801e-12)	3.99982971e+02
22600           	1.01325000e+05	(1.06097676e+00 4.65085184e-08 1.25001045e-12)	3.99982971e+02
22700           	1.01325000e+05	(1.06097717e+00 1.01219132e-07 1.23459776e-12)	3.99982971e+02
22800           	1.01325000e+05	(1.06097764e+00 4.55249058e-08 1.23522449e-12)	3.99982971e+02
22900           	1.01325000e+05	(1.06097770e+00 -8.26161672e-08 1.23772384e-12)	3.99982971e+02
23000           	1.01325000e+05	(1.06097706e+00 -1.43387934e-07 1.26292567e-12)	3.99982971e+02
23100           	1.01325000e+05	(1.06097641e+00 3.58978318e-09 1.25781515e-12)	3.99982971e+02
23200           	1.01325000e+05	(1.06097689e+00 2.11522594e-07 1.24786927e-12)	3.99982971e+02
23300           	1.01325000e+05	(1.06097814e+00 1.42097586e-07 1.24925908e-12)	3.99982971e+02
23400           	1.01325000e+05	(1.06097831e+00 -1.51521294e-07 1.24154426e-12)	3.99982971e+02
23500           	1.01325000e+05	(1.06097713e+00 -2.64549786e-07 1.25007000e-12)	3.99982971e+02
23600           	1.01325000e+05	(1.06097604e+00 -5.65444077e-08 1.24870716e-12)	3.99982971e+02
23700           	1.01325000e+05	(1.06097642e+00 2.39266424e-07 1.25051736e-12)	3.99982971e+02
23800           	1.01325000e+05	(1.06097789e+00 2.36463548e-07 1.25248231e-12)	3.99982971e+02
23900           	1.01325000e+05	(1.06097856e+00 -6.12068133e-08 1.22940157e-12)	3.99982971e+02
24000           	1.01325000e+05	(1.06097759e+00 -3.07243755e-07 1.22909400e-12)	3.99982971e+02
24100           	1.01325000e+05	(1.06097593e+00 -1.64676164e-07 1.26018594e-12)	3.99982971e+02
24200           	1.01325000e+05	(1.06097583e+00 2.39466244e-07 1.24172045e-12)	3.99982971e+02
24300           	1.01325000e+05	(1.06097756e+00 3.70363801e-07 1.25346001e-12)	3.99982971e+02
24400           	1.01325000e+05	(1.06097898e+00 5.44582701e-08 1.23384530e-12)	3.99982971e+02
24500           	1.01325000e+05	(1.06097823e+00 -3.50486980e-07 1.23908979e-12)	3.99982971e+02
24600           	1.01325000e+05	(1.06097609e+00 -3.03589864e-07 1.25584401e-12)	3.99982971e+02
24700           	1.01325000e+05	(1.06097530e+00 1.91173408e-07 1.21693465e-12)	3.99982971e+02
24800           	1.01325000e+05	(1.06097720e+00 4.89500716e-07 1.25284802e-12)	3.99982971e+02
24900           	1.01325000e+05	(1.06097949e+00 1.62657239e-07 1.23344181e-12)	3.99982971e+02
25000           	1.01325000e+05	(1.06097900e+00 -4.40013081e-07 1.25604572e-12)	3.99982971e+02
25100           	1.01325000e+05	(1.06097610e+00 -4.87528990e-07 1.25945563e-12)	3.99982971e+02
25200           	1.01325000e+05	(1.06097462e+00 9.65182935e-08 1.26486159e-12)	3.99982971e+02
25300           	1.01325000e+05	(1.06097645e+00 5.59476706e-07 1.22986050e-12)	3.99982971e+02
25400           	1.01325000e+05	(1.06097931e+00 3.02105948e-07 1.26348761e-12)	3.99982971e+02
25500           	1.01325000e+05	(1.06097934e+00 -3.65758908e-07 1.26172790e-12)	3.99982971e+02
25600           	1.01325000e+05	(1.06097647e+00 -5.24649502e-07 1.24774937e-12)	3.99982971e+02
25700           	1.01325000e+05	(1.06097442e+00 4.02064317e-08 1.25096642e-12)	3.99982971e+02
25800           	1.01325000e+05	(1.06097598e+00 6.28102783e-07 1.25277824e-12)	3.99982971e+02
25900           	1.01325000e+05	(1.06097939e+00 4.82346252e-07 1.24743553e-12)	3.99982971e+02
26000           	1.01325000e+05	(1.06098041e+00 -2.68822992e-07 1.26946769e-12)	3.99982971e+02
26100           	1.01325000e+05	(1.06097773e+00 -7.02825760e-07 1.24213433e-12)	3.99982971e+02
26200           	1.01325000e+05	(1.06097464e+00 -2.75598675e-07 1.23676415e-12)	3.99982971e+02
26300           	1.01325000e+05	(1.06097534e+00 4.37782375e-07 1.25766335e-12)	3.99982971e+02
26400           	1.01325000e+05	(1.06097849e+00 3.41642009e-07 1.26020656e-12)	3.99982971e+02
26500           	1.01325000e+05	(1.06097885e+00 -3.02497935e-07 1.23505976e-12)	3.99982971e+02
26600           	1.01325000e+05	(1.06097604e+00 -4.15258911e-07 1.26329891e-12)	3.99982971e+02
26700           	1.01325000e+05	(1.06097471e+00 2.44275517e-07 1.24851035e-12)	3.99982971e+02
26800           	1.01325000e+05	(1.06097749e+00 6.35641356e-07 1.24580457e-12)	3.99982971e+02
26900           	1.01325000e+05	(1.06097984e+00 2.67937747e-08 1.26419540e-12)	3.99982971e+02
27000           	1.01325000e+05	(1.06097816e+00 -4.62477424e-07 1.25758399e-12)	3.99982971e+02
27100           	1.01325000e+05	(1.06097614e+00 -2.23167948e-07 1.24552515e-12)	3.99982971e+02
27200           	1.01325000e+05	(1.06097667e+00 4.80665275e-08 1.24377011e-12)	3.99982971e+02
27300           	1.01325000e+05	(1.06097736e+00 -1.92683680e-07 1.26516623e-12)	3.99982971e+02
27400           	1.01325000e+05	(1.06097585e+00 -2.22742815e-07 1.25854914e-12)	3.99982971e+02
27500           	1.01325000e+05	(1.06097554e+00 1.91426965e-07 1.23981472e-12)	3.99982971e+02
27600           	1.01325000e+05	(1.06097696e+00 3.38575009e-07 1.23736414e-12)	3.99982971e+02
27700           	1.01325000e+05	(1.06097851e+00 2.21567569e-07 1.24492294e-12)	3.99982971e+02
27800           	1.01325000e+05	(1.06097896e+00 -2.14062612e-07 1.24866058e-12)	3.99982971e+02
27900           	1.01325000e+05	(1.06097686e+00 -3.55932709e-07 1.24260482e-12)	3.99982971e+02
28000           	1.01325000e+05	(1.06097575e+00 1.05145887e-07 1.23061685e-12)	3.99982971e+02
28100           	1.01325000e+05	(1.06097722e+00 4.76768862e-07 1.24056187e-12)	3.99982971e+02
28200           	1.01325000e+05	(1.06098016e+00 2.41773237e-07 1.23672734e-12)	3.99982971e+02
28300           	1.01325000e+05	(1.06098045e+00 -6.67853263e-07 1.24955764e-12)	3.99982971e+02
28400           	1.01325000e+05	(1.06097618e+00 -9.97795655e-07 1.26200444e-12)	3.99982971e+02
28500           	1.01325000e+05	(1.06097234e+00 -3.62174306e-07 1.24398842e-12)	3.99982971e+02
28600           	1.01325000e+05	(1.06097195e+00 8.19302966e-07 1.24173190e-12)	3.99982971e+02
28700           	1.01325000e+05	(1.06097780e+00 1.45513838e-06 1.27125728e-12)	3.99982971e+02
28800           	1.01325000e+05	(1.06098323e+00 2.44732612e-07 1.23702370e-12)	3.99982971e+02
28900           	1.01325000e+05	(1.06098022e+00 -9.63901991e-07 1.25689932e-12)	3.99982971e+02
29000           	1.01325000e+05	(1.06097423e+00 -8.39016782e-07 1.25163669e-12)	3.99982971e+02
29100           	1.01325000e+05	(1.06097122e+00 5.38258357e-07 1.23366464e-12)	3.99982971e+02
29200           	1.01325000e+05	(1.06097716e+00 1.68506247e-06 1.24173614e-12)	3.99982971e+02
29300           	1.01325000e+05	(1.06098497e+00 5.83364905e-07 1.25479643e-12)	3.99982971e+02
29400           	1.01325000e+05	(1.06098435e+00 -1.32515041e-06 1.23645160e-12)	3.99982971e+02
29500           	1.01325000e+05	(1.06097532e+00 -2.05664269e-06 1.23651846e-12)	3.99982971e+02
29600           	1.01325000e+05	(1.06096646e+00 -1.70289808e-07 1.27195652e-12)	3.99982971e+02
29700           	1.01325000e+05	(1.06097218e+00 1.52338183e-06 1.24005813e-12)	3.99982971e+02
29800           	1.01325000e+05	(1.06097736e+00 7.98917064e-07 1.24542383e-12)	3.99982971e+02
29900           	1.01325000e+05	(1.06097883e+00 2.94815278e-07 1.23225432e-12)	3.99982971e+02
30000           	1.01325000e+05	(1.06097675e+00 -2.16268885e-07 1.23039729e-12)	3.99982971e+02
30100           	1.01325000e+05	(1.06097631e+00 4.48835621e-07 1.23092380e-12)	3.99982971e+02
30200           	1.01325000e+05	(1.06097855e+00 -1.65777314e-08 1.25616377e-12)	3.99982971e+02
30300           	1.01325000e+05	(1.06097636e+00 -4.46420091e-08 1.25476836e-12)	3.99982971e+02
30400           	1.01325000e+05	(1.06097697e+00 2.96256943e-07 1.25164967e-12)	3.99982971e+02
30500           	1.01325000e+05	(1.06097843e+00 2.37189308e-07 1.24488876e-12)	3.99982971e+02
30600           	1.01325000e+05	(1.06097934e+00 -2.78671845e-07 1.23462891e-12)	3.99982971e+02
30700           	1.01325000e+05	(1.06097618e+00 -5.11791422e-07 1.26880163e-12)	3.99982971e+02
30800           	1.01325000e+05	(1.06097538e+00 2.74574580e-07 1.24316209e-12)	3.99982971e+02
30900           	1.01325000e+05	(1.06097791e+00 1.59480423e-07 1.26675026e-12)	3.99982971e+02
31000           	1.01325000e+05	(1.06097719e+00 -5.72001707e-08 1.24087067e-12)	3.99982971e+02
31100           	1.01325000e+05	(1.06097726e+00 1.42123979e-07 1.25104937e-12)	3.99982971e+02
31200           	1.01325000e+05	(1.06097812e+00 5.36856728e-10 1.26254761e-12)	3.99982971e+02
31300           	1.01325000e+05	(1.06097752e+00 -2.13118325e-07 1.24900077e-12)	3.99982971e+02
31400           	1.01325000e+05	(1.06097628e+00 -8.53603570e-08 1.25804144e-12)	3.99982971e+02
31500           	1.01325000e+05	(1.06097647e+00 2.15366682e-07 1.24207146e-12)	3.99982971e+02
31600           	1.01325000e+05	(1.06097788e+00 2.26179062e-07 1.23762358e-12)	3.99982971e+02
31700           	1.01325000e+05	(1.06097855e+00 -7.22304961e-08 1.23586519e-12)	3.99982971e+02
31800           	1.01325000e+05	(1.06097744e+00 -3.11261105e-07 1.25501221e-12)	3.99982971e+02
31900           	1.01325000e+05	(1.06097581e+00 -1.01060341e-07 1.22224604e-12)	3.99982971e+02
32000           	1.01325000e+05	(1.06097618e+00 2.87648333e-07 1.26178638e-12)	3.99982971e+02
32100           	1.01325000e+05	(1.06097807e+00 2.96662562e-07 1.23353000e-12)	3.99982971e+02
32200           	1.01325000e+05	(1.06097893e+00 -1.26638594e-07 1.24691812e-12)	3.99982971e+02
32300           	1.01325000e+05	(1.06097729e+00 -4.17950020e-07 1.25070941e-12)	3.99982971e+02
32400           	1.01325000e+05	(1.06097528e+00 -1.16925549e-07 1.23181322e-12)	3.99982971e+02
32500           	1.01325000e+05	(1.06097585e+00 3.83176737e-07 1.25706076e-12)	3.99982971e+02
32600           	1.01325000e+05	(1.06097829e+00 3.92372797e-07 1.25015806e-12)	3.99982971e+02
32700           	1.01325000e+05	(1.06097954e+00 -1.38481161e-07 1.24105931e-12)	3.99982971e+02
32800           	1.01325000e+05	(1.06097758e+00 -5.63163371e-07 1.26373917e-12)	3.99982971e+02
32900           	1.01325000e+05	(1.06097486e+00 -2.26317400e-07 1.22962332e-12)	3.99982971e+02
33000           	1.01325000e+05	(1.06097515e+00 4.23102069e-07 1.24443155e-12)	3.99982971e+02
33100           	1.01325000e+05	(1.06097818e+00 5.46193383e-07 1.25628684e-12)	3.99982971e+02
33200           	1.01325000e+05	(1.06098019e+00 -5.89592210e-08 1.23703536e-12)	3.99982971e+02
33300           	1.01325000e+05	(1.06097829e+00 -6.65586630e-07 1.22933775e-12)	3.99982971e+02
33400           	1.01325000e+05	(1.06097482e+00 -3.96469371e-07 1.24498729e-12)	3.99982971e+02
33500           	1.01325000e+05	(1.06097444e+00 3.83910732e-07 1.23710210e-12)	3.99982971e+02
33600           	1.01325000e+05	(1.06097772e+00 7.36187245e-07 1.24639107e-12)	3.99982971e+02
33700           	1.01325000e+05	(1.06098093e+00 1.00787710e-07 1.23539594e-12)	3.99982971e+02
33800           	1.01325000e+05	(1.06097945e+00 -7.78050747e-07 1.23854784e-12)	3.99982971e+02
33900           	1.01325000e+05	(1.06097489e+00 -6.44476633e-07 1.22639357e-12)	3.99982971e+02
34000           	1.01325000e+05	(1.06097337e+00 3.19216825e-07 1.24838815e-12)	3.99982971e+02
34100           	1.01325000e+05	(1.06097682e+00 9.54254144e-07 1.22398330e-12)	3.99982971e+02
34200           	1.01325000e+05	(1.06098144e+00 3.31968880e-07 1.25241667e-12)	3.99982971e+02
34300           	1.01325000e+05	(1.06098054e+00 -7.70219311e-07 1.23816608e-12)	3.99982971e+02
34400           	1.01325000e+05	(1.06097544e+00 -8.37437094e-07 1.22300455e-12)	3.99982971e+02
34500           	1.01325000e+05	(1.06097277e+00 1.23510434e-07 1.24883033e-12)	3.99982971e+02
34600           	1.01325000e+05	(1.06097563e+00 9.71403512e-07 1.25116013e-12)	3.99982971e+02
34700           	1.01325000e+05	(1.06098075e+00 5.28973200e-07 1.24058367e-12)	3.99982971e+02
34800           	1.01325000e+05	(1.06098061e+00 -5.87665610e-07 1.23161890e-12)	3.99982971e+02
34900           	1.01325000e+05	(1.06097623e+00 -7.77681070e-07 1.24266235e-12)	3.99982971e+02
35000           	1.01325000e+05	(1.06097362e+00 -1.90359533e-08 1.24195405e-12)	3.99982971e+02
35100           	1.01325000e+05	(1.06097558e+00 7.16959221e-07 1.25161510e-12)	3.99982971e+02
35200           	1.01325000e+05	(1.06097961e+00 4.28295484e-07 1.24607306e-12)	3.99982971e+02
35300           	1.01325000e+05	(1.06097962e+00 -3.61169850e-07 1.22709281e-12)	3.99982971e+02
35400           	1.01325000e+05	(1.06097683e+00 -4.90130983e-07 1.24857447e-12)	3.99982971e+02
35500           	1.01325000e+05	(1.06097501e+00 -3.68990234e-08 1.26334633e-12)	3.99982971e+02
35600           	1.01325000e+05	(1.06097622e+00 4.97439085e-07 1.26998793e-12)	3.99982971e+02
35700           	1.01325000e+05	(1.06097904e+00 3.10938290e-07 1.23062747e-12)	3.99982971e+02
35800           	1.01325000e+05	(1.06097927e+00 -1.92690593e-07 1.24228293e-12)	3.99982971e+02
35900           	1.01325000e+05	(1.06097766e+00 -4.26930811e-07 1.26579657e-12)	3.99982971e+02
36000           	1.01325000e+05	(1.06097558e+00 -2.15418512e-07 1.27209404e-12)	3.99982971e+02
36100           	1.01325000e+05	(1.06097558e+00 3.34620603e-07 1.26129428e-12)	3.99982971e+02
36200           	1.01325000e+05	(1.06097804e+00 4.35351006e-07 1.24502939e-12)	3.99982971e+02
36300           	1.01325000e+05	(1.06097949e+00 -2.94396149e-08 1.25388952e-12)	3.99982971e+02
36400           	1.01325000e+05	(1.06097815e+00 -5.09883704e-07 1.24298540e-12)	3.99982971e+02
36500           	1.01325000e+05	(1.06097510e+00 -3.53969678e-07 1.24073833e-12)	3.99982971e+02
36600           	1.01325000e+05	(1.06097460e+00 4.33390223e-07 1.22640632e-12)	3.99982971e+02
36700           	1.01325000e+05	(1.06097812e+00 7.50374948e-07 1.22871809e-12)	3.99982971e+02
36800           	1.01325000e+05	(1.06098132e+00 4.85516285e-08 1.24912386e-12)	3.99982971e+02
36900           	1.01325000e+05	(1.06097952e+00 -9.24894670e-07 1.23844699e-12)	3.99982971e+02
37000           	1.01325000e+05	(1.06097414e+00 -7.70962861e-07 1.23402729e-12)	3.99982971e+02
37100           	1.01325000e+05	(1.06097249e+00 4.41259090e-07 1.24382092e-12)	3.99982971e+02
37200           	1.01325000e+05	(1.06097697e+00 1.12326643e-06 1.25412955e-12)	3.99982971e+02
37300           	1.01325000e+05	(1.06098232e+00 4.24875405e-07 1.24397816e-12)	3.99982971e+02
37400           	1.01325000e+05	(1.06098184e+00 -1.03501321e-06 1.26236008e-12)	3.99982971e+02
37500           	1.01325000e+05	(1.06097465e+00 -1.24091764e-06 1.24537936e-12)	3.99982971e+02
37600           	1.01325000e+05	(1.06097104e+00 1.92744831e-07 1.25022703e-12)	3.99982971e+02
37700           	1.01325000e+05	(1.06097529e+00 1.24483121e-06 1.25594006e-12)	3.99982971e+02
37800           	1.01325000e+05	(1.06098197e+00 7.33105163e-07 1.23891305e-12)	3.99982971e+02
37900           	1.01325000e+05	(1.06098251e+00 -8.91418177e-07 1.23370071e-12)	3.99982971e+02
38000           	1.01325000e+05	(1.06097548e+00 -1.19822087e-06 1.25989949e-12)	3.99982971e+02
38100           	1.01325000e+05	(1.06097203e+00 -4.77868335e-08 1.23312104e-12)	3.99982971e+02
38200           	1.01325000e+05	(1.06097417e+00 9.02382314e-07 1.21173371e-12)	3.99982971e+02
38300           	1.01325000e+05	(1.06097945e+00 8.33719875e-07 1.25307993e-12)	3.99982971e+02
38400           	1.01325000e+05	(1.06098080e+00 -1.92729566e-07 1.24283229e-12)	3.99982971e+02
38500           	1.01325000e+05	(1.06097828e+00 -3.45337026e-07 1.25169423e-12)	3.99982971e+02
38600           	1.01325000e+05	(1.06097759e+00 -3.84687814e-07 1.24781346e-12)	3.99982971e+02
38700           	1.01325000e+05	(1.06097563e+00 -2.73076768e-07 1.24560396e-12)	3.99982971e+02
38800           	1.01325000e+05	(1.06097573e+00 2.14840409e-07 1.23697766e-12)	3.99982971e+02
38900           	1.01325000e+05	(1.06097735e+00 2.27475571e-07 1.24116847e-12)	3.99982971e+02
39000           	1.01325000e+05	(1.06097795e+00 5.15937320e-08 1.23648662e-12)	3.99982971e+02
39100           	1.01325000e+05	(1.06097756e+00 -1.06544493e-07 1.25961777e-12)	3.99982971e+02
39200           	1.01325000e+05	(1.06097691e+00 1.10521994e-08 1.23320394e-12)	3.99982971e+02
39300           	1.01325000e+05	(1.06097751e+00 1.06595957e-07 1.22037043e-12)	3.99982971e+02
39400           	1.01325000e+05	(1.06097790e+00 -6.34411826e-08 1.24580957e-12)	3.99982971e+02
39500           	1.01325000e+05	(1.06097724e+00 -1.44945043e-07 1.22870929e-12)	3.99982971e+02
39600           	1.01325000e+05	(1.06097666e+00 -5.35695092e-08 1.25274773e-12)	3.99982971e+02
39700           	1.01325000e+05	(1.06097663e+00 1.12058238e-07 1.26019498e-12)	3.99982971e+02
39800           	1.01325000e+05	(1.06097748e+00 1.75014394e-07 1.24762920e-12)	3.99982971e+02
39900           	1.01325000e+05	(1.06097810e+00 1.37550197e-08 1.24030656e-12)	3.99982971e+02
40000           	1.01325000e+05	(1.06097777e+00 -1.55006835e-07 1.24978029e-12)	3.99982971e+02
40100           	1.01325000e+05	(1.06097686e+00 -1.94034538e-07 1.24019883e-12)	3.99982971e+02
40200           	1.01325000e+05	(1.06097610e+00 2.63195571e-08 1.26008094e-12)	3.99982971e+02
40300           	1.01325000e+05	(1.06097693e+00 2.61356428e-07 1.24801339e-12)	3.99982971e+02
40400           	1.01325000e+05	(1.06097833e+00 1.31059492e-07 1.28658559e-12)	3.99982971e+02
40500           	1.01325000e+05	(1.06097847e+00 -2.14605745e-07 1.23098327e-12)	3.99982971e+02
40600           	1.01325000e+05	(1.06097687e+00 -3.77829915e-07 1.25837000e-12)	3.99982971e+02
40700           	1.01325000e+05	(1.06097529e+00 -2.07602446e-08 1.23825600e-12)	3.99982971e+02
40800           	1.01325000e+05	(1.06097638e+00 4.26235195e-07 1.24320561e-12)	3.99982971e+02
40900           	1.01325000e+05	(1.06097882e+00 2.89627418e-07 1.24684641e-12)	3.99982971e+02
41000           	1.01325000e+05	(1.06097936e+00 -2.75606273e-07 1.21937807e-12)	3.99982971e+02
41100           	1.01325000e+05	(1.06097682e+00 -5.60627603e-07 1.24078033e-12)	3.99982971e+02
41200           	1.01325000e+05	(1.06097438e+00 -4.36947875e-08 1.23589643e-12)	3.99982971e+02
41300           	1.01325000e+05	(1.06097577e+00 6.41746285e-07 1.25315749e-12)	3.99982971e+02
41400           	1.01325000e+05	(1.06097949e+00 5.08223827e-07 1.25760728e-12)	3.99982971e+02
41500           	1.01325000e+05	(1.06098070e+00 -3.38378585e-07 1.26220312e-12)	3.99982971e+02