/*--------------------------------*- C++ -*----------------------------------*\
| =========                 |                                                 |
| \\      /  F ield         | OpenFOAM: The Open Source CFD Toolbox           |
|  \\    /   O peration     | Version:  2212                                  |
|   \\  /    A nd           | Website:  www.openfoam.com                      |
|    \\/     M anipulation  |                                                 |
\*---------------------------------------------------------------------------*/
FoamFile
{
    version     2.0;
    format      ascii;
    arch        "LSB;label=32;scalar=64";
    class       volScalarField;
    location    "10000";
    object      epsilon;
}
// * * * * * * * * * * * * * * * * * * * * * * * * * * * * * * * * * * * * * //

dimensions      [0 2 -3 0 0 0 0];

internalField   nonuniform List<scalar> 
200000
(
0.0075322
0.00753214
0.00753206
0.00753234
0.00753795
0.00755499
0.00759547
0.00768359
0.0078736
0.00827132
0.00909365
0.0108331
0.0148208
0.025669
0.0655751
0.281728
1.89962
12.5701
9.92864
0.00750462
0.00750592
0.00751069
0.00752699
0.00756769
0.0076635
0.00787132
0.00829141
0.00909361
0.0105921
0.0134333
0.0191498
0.0320598
0.06726
0.191215
0.725715
3.77124
13.4017
21.9365
0.00748153
0.00748915
0.00751226
0.00756972
0.00769855
0.00796155
0.008459
0.00935041
0.0109048
0.0136261
0.0185714
0.0282442
0.0494791
0.104175
0.271325
0.882139
3.24074
8.70596
21.751
0.00746675
0.00749089
0.00755026
0.00768139
0.00794299
0.00842315
0.0092532
0.0106399
0.0129395
0.0168266
0.0237042
0.0367952
0.0643835
0.130349
0.310193
0.844495
2.27084
5.67222
20.4611
0.00746806
0.007519
0.00763427
0.00786434
0.00828336
0.00899642
0.0101586
0.0120184
0.0150084
0.0199437
0.0284807
0.0442717
0.0761091
0.14686
0.316683
0.719208
1.60857
4.45967
18.8948
0.00748903
0.00757855
0.00776476
0.00810783
0.00869165
0.00963351
0.011109
0.0134026
0.0170094
0.0228455
0.0327146
0.0504044
0.0843674
0.154008
0.300222
0.591344
1.23929
3.86774
17.6596
0.00753236
0.00767006
0.00793614
0.00839678
0.00914219
0.0102997
0.0120625
0.0147445
0.0188851
0.0254583
0.036309
0.0550966
0.0892963
0.153767
0.273577
0.492255
1.04964
3.53366
16.6825
0.00759997
0.00779129
0.0081406
0.0087171
0.00961559
0.0109718
0.0129933
0.0160151
0.0206018
0.0277424
0.039229
0.0583924
0.0913999
0.14881
0.246032
0.42402
0.953339
3.34591
15.8523
0.00769148
0.00793844
0.00837026
0.0090573
0.0100978
0.0116344
0.0138849
0.0171965
0.0221403
0.0296825
0.0414891
0.0604458
0.0913803
0.141573
0.222311
0.380379
0.909342
3.24769
15.1242
0.0078051
0.00810711
0.00861807
0.00940842
0.0105789
0.0122769
0.0147264
0.0182777
0.023492
0.0312822
0.0431419
0.0614773
0.0899584
0.13382
0.20401
0.356837
0.898704
3.20512
14.4831
0.0079382
0.00829288
0.00887809
0.00976355
0.0110515
0.0128919
0.0155103
0.0192526
0.0246558
0.0325587
0.0442618
0.0617214
0.0877336
0.126551
0.19078
0.346438
0.91207
3.19948
13.9196
0.00808769
0.00849164
0.00914542
0.0101174
0.0115101
0.013474
0.0162323
0.0201191
0.0256374
0.0335404
0.044937
0.0614067
0.0851825
0.12038
0.182517
0.347761
0.944635
3.2192
13.4258
0.00825066
0.00869981
0.00941608
0.0104658
0.0119508
0.0140198
0.01689
0.0208787
0.0264481
0.0342631
0.0452597
0.0607335
0.0826377
0.115545
0.178663
0.358961
0.99361
3.25618
12.9961
0.00842408
0.00891423
0.00968684
0.0108058
0.0123709
0.0145272
0.0174832
0.0215355
0.0271028
0.0347657
0.0453178
0.0598707
0.0803492
0.112271
0.179013
0.378724
1.05712
3.30465
12.6261
0.00860493
0.00913211
0.00995505
0.0111348
0.0127683
0.0149953
0.0180131
0.0220959
0.0276188
0.0350886
0.0451927
0.0589582
0.0784963
0.110641
0.183419
0.406353
1.13288
3.35992
12.3107
0.00879076
0.00935109
0.0102186
0.0114511
0.0131417
0.0154239
0.0184822
0.0225675
0.0280151
0.0352713
0.0449571
0.058106
0.0771891
0.110635
0.1916
0.44148
1.2177
3.418
12.0451
0.00897944
0.00956919
0.0104757
0.0117533
0.0134906
0.0158137
0.0188939
0.0229596
0.0283112
0.0353513
0.0446738
0.0573987
0.0764974
0.112239
0.203444
0.483957
1.30814
3.47556
11.8238
0.00916914
0.00978474
0.010725
0.0120405
0.0138149
0.0161661
0.0192525
0.0232818
0.0285264
0.0353623
0.044393
0.0568916
0.0764463
0.115421
0.218949
0.532629
1.39932
3.52952
11.6412
0.00935829
0.00999639
0.0109654
0.0123121
0.0141147
0.016483
0.0195628
0.023544
0.028679
0.0353343
0.0441566
0.0566332
0.0770904
0.120276
0.238232
0.586671
1.4881
3.578
11.4914
0.00954556
0.010203
0.0111963
0.0125679
0.0143908
0.0167667
0.0198299
0.0237562
0.028786
0.0352931
0.0439974
0.0566526
0.0784294
0.126743
0.261003
0.644331
1.57189
3.62001
11.3688
0.00972981
0.0104037
0.0114169
0.0128079
0.0146441
0.0170196
0.020059
0.0239278
0.0288628
0.0352606
0.0439409
0.0569735
0.0804933
0.134916
0.287082
0.703796
1.64849
3.65503
11.2683
0.00991015
0.0105977
0.011627
0.0130323
0.0148756
0.0172445
0.0202554
0.0240678
0.028923
0.0352543
0.0440055
0.0576098
0.0832952
0.144779
0.315909
0.763263
1.71641
3.68293
11.1853
0.0100858
0.0107846
0.0118263
0.0132414
0.0150868
0.0174442
0.0204242
0.0241845
0.0289784
0.0352888
0.0442061
0.058576
0.0868464
0.156257
0.346936
0.821077
1.77488
3.70386
11.1155
0.0102561
0.0109639
0.0120149
0.0134357
0.0152791
0.0176216
0.0205703
0.0242853
0.0290389
0.0353754
0.0445524
0.0598758
0.0911462
0.16933
0.379791
0.875885
1.82399
3.71835
11.0554
0.0104207
0.0111353
0.0121927
0.013616
0.0154539
0.0177794
0.0206982
0.0243766
0.0291127
0.0355225
0.0450506
0.0615133
0.0961945
0.183883
0.413826
0.926749
1.8644
3.72725
11.0023
0.0105792
0.0112988
0.01236
0.0137829
0.0156129
0.0179203
0.0208121
0.0244644
0.0292067
0.0357367
0.0457059
0.0634931
0.101994
0.199794
0.448291
0.973053
1.89707
3.73153
10.9541
0.0107312
0.0114541
0.0125171
0.0139373
0.0157575
0.018047
0.0209157
0.0245533
0.029326
0.0360214
0.0465178
0.0658128
0.108541
0.2169
0.482492
1.01449
1.92307
3.73212
10.9096
0.0108767
0.0116015
0.0126642
0.0140798
0.0158892
0.0181617
0.0210124
0.0246474
0.0294744
0.0363801
0.0474911
0.0684797
0.115811
0.234986
0.515834
1.05102
1.94343
3.72985
10.8678
0.0110155
0.0117408
0.0128018
0.0142114
0.0160095
0.0182667
0.021105
0.02475
0.0296551
0.0368149
0.0486256
0.0714906
0.12379
0.253883
0.547832
1.08286
1.95911
3.72541
10.8281
0.0111475
0.0118723
0.0129303
0.014333
0.0161198
0.0183639
0.0211961
0.0248637
0.0298704
0.0373268
0.0499217
0.0748478
0.132447
0.273339
0.578152
1.11038
1.97099
3.71938
10.79
0.0112728
0.0119962
0.0130502
0.0144452
0.0162213
0.0184551
0.0212877
0.0249908
0.0301218
0.037917
0.0513805
0.0785521
0.141737
0.293086
0.606564
1.13403
1.97983
3.71224
10.7534
0.0113915
0.0121126
0.0131618
0.0145491
0.0163153
0.0185419
0.0213817
0.0251326
0.0304099
0.0385836
0.0530002
0.082605
0.151602
0.312878
0.632931
1.15428
1.98625
3.70437
10.718
0.0115037
0.0122219
0.0132658
0.0146452
0.0164029
0.0186257
0.0214795
0.0252905
0.0307355
0.0393287
0.0547847
0.0869976
0.161969
0.332496
0.6572
1.17158
1.99077
3.69604
10.6839
0.0116094
0.0123243
0.0133625
0.0147345
0.016485
0.0187075
0.0215822
0.0254652
0.0310992
0.0401529
0.0567342
0.0917245
0.172775
0.351746
0.67939
1.18635
1.99378
3.68749
10.6509
0.0117089
0.0124201
0.0134526
0.0148174
0.0165626
0.0187886
0.0216909
0.0256577
0.0315014
0.0410565
0.0588496
0.0967797
0.183941
0.370478
0.699582
1.19894
1.99561
3.67885
10.6191
0.0118023
0.0125096
0.0135363
0.0148948
0.0166365
0.0188697
0.0218062
0.0258683
0.0319425
0.0420396
0.0611324
0.102152
0.195376
0.388573
0.717892
1.20969
1.99651
3.67022
10.5883
0.0118899
0.0125931
0.0136143
0.0149672
0.0167073
0.0189515
0.0219289
0.0260975
0.0324224
0.0431025
0.0635837
0.107825
0.206991
0.405937
0.73446
1.21887
1.9967
3.6617
10.5586
0.0119718
0.0126709
0.0136868
0.0150351
0.0167758
0.0190348
0.0220595
0.0263453
0.0329403
0.0442452
0.0662045
0.11378
0.218703
0.422505
0.749433
1.22673
1.99633
3.65333
10.53
0.0120483
0.0127434
0.0137543
0.0150991
0.0168425
0.0191199
0.0221981
0.0266117
0.0334976
0.0454697
0.0689905
0.119992
0.230434
0.438232
0.762954
1.23345
1.99552
3.64514
10.5024
0.0121197
0.0128108
0.0138173
0.0151597
0.0169078
0.0192074
0.0223452
0.0268977
0.0340957
0.0467778
0.0719418
0.126441
0.242109
0.453097
0.775165
1.23922
1.99438
3.63716
10.4758
0.012186
0.0128734
0.013876
0.0152171
0.0169722
0.0192976
0.022501
0.0272029
0.0347329
0.0481679
0.0750601
0.1331
0.253665
0.467101
0.786194
1.24416
1.99298
3.6294
10.4501
0.0122476
0.0129316
0.0139308
0.0152719
0.0170361
0.0193908
0.0226658
0.0275275
0.0354101
0.0496424
0.0783411
0.13994
0.265047
0.480258
0.796163
1.24839
1.99137
3.62187
10.4253
0.0123047
0.0129855
0.0139821
0.0153244
0.0170997
0.0194874
0.0228398
0.0278718
0.0361284
0.051203
0.0817797
0.146928
0.276205
0.492591
0.805182
1.25202
1.98961
3.61459
10.4015
0.0123575
0.0130354
0.0140301
0.0153748
0.0171635
0.0195874
0.0230228
0.0282352
0.0368875
0.0528511
0.0853716
0.154034
0.287098
0.504134
0.81335
1.25513
1.98774
3.60755
10.3785
0.0124063
0.0130816
0.0140751
0.0154235
0.0172275
0.019691
0.0232151
0.0286189
0.0376891
0.0545852
0.0891098
0.161228
0.297689
0.514925
0.820756
1.2578
1.98579
3.60075
10.3564
0.0124512
0.0131244
0.0141173
0.0154707
0.0172921
0.0197985
0.023417
0.0290236
0.0385341
0.0564057
0.0929882
0.16848
0.307952
0.525002
0.827477
1.26008
1.98378
3.59418
10.3351
0.0124925
0.0131639
0.014157
0.0155166
0.0173575
0.01991
0.0236288
0.0294492
0.0394227
0.0583147
0.0969995
0.175761
0.317866
0.534408
0.833585
1.26202
1.98173
3.58784
10.3146
0.0125304
0.0132003
0.0141944
0.0155615
0.0174237
0.0200257
0.0238504
0.0298953
0.040355
0.0603127
0.101134
0.183044
0.327417
0.543185
0.839142
1.26368
1.97967
3.58173
10.2948
0.012565
0.013234
0.0142298
0.0156055
0.0174911
0.0201456
0.024082
0.0303622
0.0413317
0.0623988
0.105383
0.190304
0.336598
0.551375
0.844204
1.26508
1.9776
3.57583
10.2757
0.0125967
0.013265
0.0142632
0.0156488
0.0175596
0.0202699
0.0243233
0.0308506
0.0423548
0.0645712
0.109733
0.197516
0.345406
0.559016
0.848821
1.26626
1.97553
3.57013
10.2573
0.0126254
0.0132935
0.0142949
0.0156915
0.0176294
0.0203985
0.0245746
0.0313612
0.0434251
0.066829
0.114174
0.204658
0.353841
0.566148
0.853037
1.26725
1.97348
3.56464
10.2396
0.0126513
0.0133198
0.014325
0.0157339
0.0177007
0.0205317
0.024837
0.0318953
0.0445421
0.0691703
0.118694
0.211709
0.361908
0.572807
0.856891
1.26807
1.97144
3.55935
10.2226
0.0126746
0.0133438
0.0143537
0.0157759
0.0177735
0.0206697
0.0251105
0.0324529
0.0457072
0.0715942
0.123281
0.218652
0.369612
0.579026
0.860419
1.26874
1.96943
3.55425
10.2061
0.0126955
0.0133659
0.0143811
0.0158178
0.017848
0.0208127
0.0253949
0.033034
0.0469215
0.074099
0.127922
0.225471
0.376963
0.584837
0.86365
1.26929
1.96744
3.54933
10.1902
0.012714
0.0133861
0.0144074
0.0158596
0.0179243
0.0209607
0.0256906
0.0336395
0.0481852
0.0766817
0.132607
0.232152
0.383971
0.590269
0.866614
1.26972
1.96549
3.54458
10.1749
0.0127304
0.0134046
0.0144326
0.0159015
0.0180025
0.0211137
0.0259975
0.0342693
0.049499
0.0793394
0.137322
0.238685
0.390648
0.595351
0.869335
1.27005
1.96358
3.54001
10.1602
0.0127447
0.0134214
0.0144569
0.0159436
0.0180826
0.0212721
0.026316
0.0349241
0.0508628
0.0820683
0.142058
0.24506
0.397006
0.600107
0.871835
1.27029
1.9617
3.5356
10.1459
0.0127571
0.0134367
0.0144803
0.0159859
0.0181647
0.0214354
0.0266462
0.0356052
0.0522761
0.0848644
0.146801
0.251271
0.403058
0.604562
0.874135
1.27046
1.95986
3.53134
10.1322
0.0127677
0.0134507
0.014503
0.0160285
0.018249
0.0216044
0.0269893
0.0363127
0.053739
0.0877232
0.151541
0.257312
0.408818
0.608738
0.876252
1.27056
1.95806
3.52725
10.119
0.0127766
0.0134633
0.0145251
0.0160715
0.0183355
0.0217793
0.0273455
0.0370473
0.0552512
0.09064
0.156266
0.26318
0.414298
0.612654
0.878203
1.27061
1.95631
3.5233
10.1062
0.0127839
0.0134748
0.0145466
0.016115
0.0184244
0.0219601
0.027715
0.0378098
0.0568131
0.0936099
0.160968
0.268873
0.419513
0.616329
0.880002
1.2706
1.95459
3.51949
10.0939
0.0127898
0.0134851
0.0145677
0.0161592
0.0185157
0.0221471
0.028098
0.0386006
0.0584243
0.0966281
0.165636
0.274388
0.424474
0.619781
0.881663
1.27055
1.95292
3.51582
10.082
0.0127943
0.0134944
0.0145883
0.016204
0.0186097
0.0223403
0.0284949
0.03942
0.0600842
0.0996897
0.170261
0.279727
0.429194
0.623026
0.883197
1.27046
1.9513
3.51229
10.0705
0.0127975
0.0135028
0.0146087
0.0162495
0.0187063
0.0225401
0.028906
0.0402684
0.0617919
0.102789
0.174837
0.28489
0.433685
0.626077
0.884616
1.27033
1.94971
3.50888
10.0594
0.0127995
0.0135103
0.0146288
0.0162959
0.0188057
0.0227461
0.0293313
0.0411466
0.0635464
0.105922
0.179356
0.289881
0.43796
0.628949
0.885928
1.27018
1.94818
3.5056
10.0488
0.0128003
0.0135171
0.0146488
0.0163432
0.0189079
0.0229589
0.0297713
0.0420545
0.0653465
0.109082
0.183812
0.2947
0.442029
0.631654
0.887144
1.27
1.94668
3.50244
10.0384
0.0128001
0.0135232
0.0146686
0.0163914
0.019013
0.0231787
0.0302267
0.042992
0.0671906
0.112264
0.188199
0.299352
0.445904
0.634204
0.888271
1.26981
1.94523
3.4994
10.0285
0.0127989
0.0135286
0.0146884
0.0164407
0.0191212
0.0234059
0.030698
0.0439594
0.069077
0.115462
0.192513
0.303841
0.449595
0.63661
0.889316
1.26959
1.94382
3.49648
10.0189
0.0127969
0.0135334
0.0147083
0.0164911
0.0192327
0.0236409
0.0311856
0.0449571
0.0710037
0.118671
0.196749
0.308169
0.453112
0.63888
0.890286
1.26936
1.94245
3.49366
10.0097
0.0127939
0.0135377
0.0147282
0.0165427
0.0193477
0.0238837
0.0316898
0.0459855
0.072969
0.121886
0.200903
0.312343
0.456463
0.641025
0.891188
1.26912
1.94112
3.49095
10.0007
0.0127902
0.0135416
0.0147483
0.0165956
0.0194661
0.0241345
0.032211
0.0470445
0.074971
0.125101
0.204974
0.316365
0.459658
0.643053
0.892027
1.26887
1.93984
3.48834
9.99214
0.0127858
0.0135451
0.0147687
0.0166499
0.0195882
0.0243936
0.0327493
0.0481344
0.0770076
0.128311
0.208958
0.320241
0.462706
0.644972
0.892807
1.26861
1.93859
3.48583
9.98384
0.0127807
0.0135483
0.0147893
0.0167057
0.0197142
0.0246612
0.0333051
0.0492548
0.0790765
0.131513
0.212854
0.323975
0.465614
0.646788
0.893535
1.26835
1.93739
3.48342
9.97583
0.012775
0.0135511
0.0148102
0.0167629
0.0198438
0.0249372
0.0338791
0.0504057
0.0811755
0.1347
0.216661
0.327573
0.46839
0.648509
0.894214
1.26808
1.93623
3.4811
9.96811
0.0127687
0.0135537
0.0148316
0.0168217
0.0199772
0.0252219
0.0344713
0.0515868
0.0833019
0.137871
0.220378
0.331039
0.471041
0.650141
0.894847
1.26782
1.9351
3.47887
9.96068
0.0127619
0.0135562
0.0148534
0.0168822
0.0201148
0.0255159
0.0350817
0.0527976
0.0854534
0.141019
0.224005
0.334378
0.473573
0.651689
0.895439
1.26755
1.93401
3.47673
9.95351
0.0127546
0.0135585
0.0148757
0.0169444
0.0202568
0.0258193
0.0357106
0.0540376
0.0876273
0.144143
0.227541
0.337594
0.475994
0.65316
0.895993
1.26728
1.93297
3.47468
9.9466
0.0127469
0.0135607
0.0148986
0.0170085
0.0204034
0.0261327
0.0363582
0.0553061
0.0898207
0.147238
0.230988
0.340693
0.478308
0.654557
0.896512
1.26701
1.93195
3.47271
9.93994
0.0127389
0.0135629
0.0149221
0.0170746
0.0205547
0.0264561
0.037025
0.0566024
0.0920311
0.150301
0.234345
0.343679
0.480523
0.655886
0.896999
1.26674
1.93098
3.47082
9.93353
0.0127304
0.0135651
0.0149463
0.0171427
0.0207109
0.0267898
0.0377113
0.0579259
0.0942557
0.15333
0.237613
0.346555
0.482643
0.65715
0.897457
1.26648
1.93003
3.46901
9.92735
0.0127217
0.0135674
0.0149712
0.017213
0.020872
0.027134
0.0384172
0.0592759
0.0964918
0.156321
0.240795
0.349328
0.484672
0.658355
0.897887
1.26622
1.92913
3.46728
9.92141
0.0127128
0.0135697
0.0149969
0.0172855
0.0210382
0.0274889
0.039143
0.0606517
0.0987367
0.159274
0.24389
0.352
0.486617
0.659503
0.898292
1.26597
1.92826
3.46562
9.91569
0.0127036
0.0135722
0.0150236
0.0173603
0.0212095
0.0278548
0.0398886
0.0620521
0.100988
0.162185
0.246901
0.354576
0.488481
0.660599
0.898674
1.26572
1.92742
3.46403
9.91018
0.0126942
0.0135749
0.0150511
0.0174374
0.021386
0.028232
0.0406543
0.0634764
0.103243
0.165053
0.249829
0.357059
0.490268
0.661644
0.899035
1.26547
1.92661
3.46251
9.90489
0.0126847
0.0135778
0.0150795
0.0175168
0.021568
0.0286205
0.0414399
0.0649234
0.105499
0.167877
0.252675
0.359454
0.491983
0.662643
0.899377
1.26524
1.92584
3.46106
9.8998
0.0126751
0.013581
0.015109
0.0175988
0.0217557
0.0290206
0.0422455
0.066392
0.107754
0.170655
0.255442
0.361764
0.49363
0.663599
0.899701
1.26501
1.9251
3.45968
9.89491
0.0126654
0.0135844
0.0151395
0.0176835
0.0219494
0.0294324
0.0430709
0.0678809
0.110006
0.173387
0.25813
0.363993
0.495211
0.664513
0.900008
1.26479
1.92439
3.45836
9.89022
0.0126556
0.0135882
0.0151712
0.0177712
0.0221493
0.0298561
0.0439159
0.069389
0.112252
0.17607
0.260743
0.366145
0.49673
0.665388
0.900301
1.26457
1.92371
3.4571
9.88571
0.0126459
0.0135924
0.0152041
0.0178617
0.0223554
0.030292
0.0447804
0.0709148
0.11449
0.178706
0.263282
0.368221
0.498191
0.666227
0.90058
1.26436
1.92306
3.45591
9.88139
0.0126362
0.013597
0.0152383
0.0179553
0.022568
0.0307405
0.0456642
0.0724571
0.116718
0.181293
0.265749
0.370226
0.499596
0.667032
0.900847
1.26417
1.92244
3.45477
9.87724
0.0126266
0.0136022
0.0152739
0.0180519
0.0227871
0.0312016
0.0465671
0.0740144
0.118935
0.183831
0.268146
0.372162
0.500948
0.667805
0.901102
1.26397
1.92184
3.45369
9.87327
0.012617
0.0136078
0.0153108
0.0181517
0.0230129
0.0316757
0.047489
0.0755854
0.121137
0.186319
0.270475
0.374033
0.50225
0.668547
0.901346
1.26379
1.92128
3.45267
9.86947
0.0126076
0.013614
0.0153492
0.0182548
0.0232457
0.0321627
0.0484294
0.0771687
0.123325
0.188759
0.272737
0.375841
0.503504
0.669261
0.901582
1.26362
1.92074
3.4517
9.86583
0.0125983
0.0136207
0.015389
0.018361
0.0234855
0.032663
0.0493882
0.078763
0.125495
0.191149
0.274936
0.377588
0.504713
0.669948
0.901808
1.26345
1.92023
3.45079
9.86235
0.0125893
0.0136281
0.0154303
0.0184707
0.0237326
0.0331766
0.0503648
0.0803667
0.127647
0.193491
0.277071
0.379278
0.505879
0.67061
0.902027
1.2633
1.91974
3.44993
9.85902
0.0125804
0.0136362
0.0154732
0.0185839
0.023987
0.0337035
0.0513589
0.0819786
0.12978
0.195784
0.279147
0.380912
0.507003
0.671248
0.902239
1.26315
1.91928
3.44911
9.85585
0.0125718
0.0136449
0.0155178
0.0187009
0.0242488
0.0342439
0.0523699
0.0835972
0.131891
0.198029
0.281163
0.382494
0.508089
0.671863
0.902445
1.26301
1.91885
3.44835
9.85282
0.0125635
0.0136544
0.0155643
0.0188218
0.0245181
0.0347977
0.0533975
0.0852212
0.13398
0.200226
0.283123
0.384024
0.509138
0.672457
0.902645
1.26288
1.91844
3.44764
9.84994
0.0125555
0.0136647
0.0156126
0.0189467
0.0247954
0.0353649
0.0544409
0.0868492
0.136047
0.202376
0.285028
0.385506
0.510151
0.673031
0.90284
1.26276
1.91805
3.44697
9.8472
0.0125478
0.0136758
0.0156629
0.0190756
0.0250806
0.0359457
0.0554996
0.0884798
0.138089
0.20448
0.286879
0.386941
0.51113
0.673586
0.90303
1.26265
1.91769
3.44635
9.84459
0.0125405
0.0136879
0.0157151
0.0192086
0.0253741
0.03654
0.056573
0.0901117
0.140107
0.206537
0.288679
0.388331
0.512078
0.674124
0.903216
1.26255
1.91735
3.44578
9.84212
0.0125336
0.0137008
0.0157693
0.0193458
0.0256759
0.0371479
0.0576604
0.0917437
0.142099
0.208549
0.290429
0.389678
0.512995
0.674645
0.903399
1.26245
1.91703
3.44524
9.83978
0.0125271
0.0137148
0.0158255
0.0194874
0.0259862
0.0377693
0.0587612
0.0933746
0.144065
0.210517
0.292131
0.390984
0.513883
0.67515
0.903578
1.26237
1.91674
3.44475
9.83756
0.012521
0.0137296
0.0158839
0.0196335
0.0263051
0.0384042
0.0598746
0.095003
0.146004
0.212441
0.293785
0.39225
0.514743
0.67564
0.903755
1.26229
1.91647
3.44431
9.83547
0.0125155
0.0137455
0.0159443
0.0197842
0.0266328
0.0390525
0.061
0.0966279
0.147916
0.214322
0.295395
0.393479
0.515577
0.676115
0.903929
1.26222
1.91622
3.4439
9.8335
0.0125104
0.0137624
0.016007
0.0199395
0.0269694
0.0397141
0.0621367
0.0982482
0.149801
0.216161
0.296961
0.394671
0.516385
0.676578
0.904101
1.26217
1.91599
3.44353
9.83165
0.0125059
0.0137804
0.0160722
0.0200995
0.027315
0.0403889
0.0632838
0.0998627
0.151658
0.217959
0.298484
0.395828
0.51717
0.677028
0.904272
1.26212
1.91577
3.4432
9.82991
0.0125019
0.0137997
0.0161398
0.0202644
0.0276695
0.0410767
0.0644407
0.101471
0.153487
0.219716
0.299967
0.396951
0.517931
0.677466
0.904441
1.26208
1.91558
3.44291
9.82829
0.0124985
0.0138202
0.0162099
0.0204342
0.0280332
0.0417773
0.0656065
0.103071
0.155288
0.221434
0.30141
0.398042
0.51867
0.677893
0.90461
1.26204
1.91541
3.44266
9.82677
0.0124958
0.0138419
0.0162826
0.0206093
0.0284062
0.0424906
0.0667805
0.104662
0.157061
0.223113
0.302814
0.399102
0.519389
0.678309
0.904777
1.26202
1.91526
3.44244
9.82537
0.0124937
0.0138649
0.0163579
0.0207896
0.0287885
0.0432164
0.0679619
0.106245
0.158806
0.224754
0.304182
0.400133
0.520087
0.678715
0.904944
1.26201
1.91513
3.44225
9.82406
0.0124924
0.0138893
0.0164359
0.0209752
0.0291801
0.0439543
0.0691499
0.107816
0.160522
0.226358
0.305514
0.401135
0.520767
0.679111
0.90511
1.262
1.91501
3.44211
9.82286
0.0124917
0.013915
0.0165167
0.0211664
0.0295813
0.0447041
0.0703436
0.109377
0.16221
0.227926
0.306811
0.402109
0.521428
0.679499
0.905276
1.262
1.91491
3.44199
9.82176
0.0124917
0.0139421
0.0166004
0.0213631
0.029992
0.0454656
0.0715424
0.110927
0.16387
0.229459
0.308075
0.403057
0.522072
0.679878
0.905442
1.26201
1.91483
3.44191
9.82076
0.0124924
0.0139706
0.0166869
0.0215656
0.0304123
0.0462384
0.0727455
0.112464
0.165502
0.230957
0.309307
0.40398
0.522698
0.68025
0.905609
1.26203
1.91477
3.44186
9.81985
0.012494
0.0140006
0.0167764
0.0217739
0.0308422
0.0470222
0.073952
0.113988
0.167106
0.232421
0.310507
0.404878
0.523309
0.680613
0.905776
1.26206
1.91473
3.44184
9.81904
0.0124964
0.0140322
0.016869
0.021988
0.0312817
0.0478168
0.0751612
0.115498
0.168682
0.233853
0.311677
0.405753
0.523905
0.68097
0.905943
1.26209
1.9147
3.44185
9.81831
0.0124996
0.0140654
0.0169646
0.0222081
0.031731
0.0486217
0.0763724
0.116994
0.170232
0.235252
0.312817
0.406605
0.524486
0.681319
0.906111
1.26213
1.91468
3.4419
9.81768
0.0125038
0.0141002
0.0170635
0.0224343
0.0321898
0.0494365
0.0775848
0.118476
0.171754
0.23662
0.31393
0.407435
0.525053
0.681663
0.906279
1.26218
1.91469
3.44197
9.81713
0.0125089
0.0141368
0.0171657
0.0226666
0.0326583
0.050261
0.0787977
0.119943
0.173249
0.237958
0.315015
0.408245
0.525607
0.682
0.906449
1.26224
1.91471
3.44207
9.81667
0.0125149
0.014175
0.0172713
0.0229052
0.0331364
0.0510946
0.0800105
0.121395
0.174717
0.239266
0.316073
0.409034
0.526147
0.682332
0.906619
1.2623
1.91474
3.4422
9.81629
0.0125218
0.0142151
0.0173803
0.0231502
0.0336241
0.051937
0.0812223
0.122831
0.17616
0.240545
0.317106
0.409804
0.526676
0.682658
0.906791
1.26238
1.91479
3.44235
9.816
0.0125297
0.0142569
0.0174929
0.0234016
0.0341212
0.0527877
0.0824327
0.124251
0.177576
0.241796
0.318114
0.410555
0.527192
0.682979
0.906964
1.26246
1.91485
3.44253
9.81578
0.0125387
0.0143007
0.0176091
0.0236595
0.0346278
0.0536464
0.0836409
0.125655
0.178967
0.24302
0.319098
0.411288
0.527698
0.683295
0.907138
1.26254
1.91493
3.44274
9.81564
0.0125486
0.0143463
0.017729
0.023924
0.0351438
0.0545125
0.0848463
0.127043
0.180333
0.244217
0.320059
0.412004
0.528192
0.683607
0.907313
1.26264
1.91502
3.44298
9.81558
0.0125596
0.0143939
0.0178526
0.0241952
0.0356691
0.0553856
0.0860484
0.128414
0.181674
0.245388
0.320997
0.412703
0.528676
0.683914
0.90749
1.26274
1.91512
3.44324
9.81559
0.0125718
0.0144434
0.0179801
0.0244731
0.0362035
0.0562653
0.0872464
0.129768
0.18299
0.246533
0.321913
0.413386
0.52915
0.684217
0.907668
1.26285
1.91524
3.44352
9.81568
0.0125851
0.014495
0.0181115
0.0247578
0.036747
0.0571511
0.08844
0.131105
0.184283
0.247654
0.322809
0.414054
0.529614
0.684516
0.907847
1.26296
1.91537
3.44383
9.81584
0.0125996
0.0145488
0.0182469
0.0250493
0.0372994
0.0580425
0.0896286
0.132426
0.185551
0.24875
0.323684
0.414706
0.530069
0.684812
0.908029
1.26308
1.91552
3.44417
9.81607
0.0126153
0.0146047
0.0183863
0.0253478
0.0378605
0.058939
0.0908117
0.133729
0.186797
0.249823
0.324539
0.415344
0.530516
0.685104
0.908212
1.26321
1.91568
3.44452
9.81637
0.0126322
0.0146628
0.0185298
0.0256532
0.0384304
0.0598403
0.0919888
0.135015
0.18802
0.250874
0.325375
0.415968
0.530954
0.685394
0.908396
1.26335
1.91585
3.4449
9.81673
0.0126504
0.0147232
0.0186776
0.0259655
0.0390086
0.0607457
0.0931594
0.136284
0.18922
0.251902
0.326192
0.416578
0.531383
0.68568
0.908583
1.26349
1.91603
3.4453
9.81717
0.0126699
0.0147859
0.0188296
0.0262849
0.0395952
0.0616549
0.0943232
0.137536
0.190398
0.252908
0.326992
0.417176
0.531805
0.685963
0.908771
1.26364
1.91622
3.44573
9.81766
0.0126907
0.014851
0.018986
0.0266114
0.0401898
0.0625674
0.0954797
0.13877
0.191554
0.253893
0.327774
0.417761
0.53222
0.686243
0.90896
1.26379
1.91643
3.44617
9.81822
0.0127129
0.0149185
0.0191468
0.0269449
0.0407924
0.0634827
0.0966286
0.139988
0.192689
0.254858
0.328539
0.418334
0.532627
0.686521
0.909152
1.26395
1.91664
3.44663
9.81884
0.0127365
0.0149885
0.019312
0.0272854
0.0414026
0.0644003
0.0977694
0.141188
0.193803
0.255803
0.329287
0.418895
0.533027
0.686796
0.909344
1.26412
1.91687
3.44712
9.81952
0.0127615
0.015061
0.0194818
0.0276331
0.0420202
0.0653199
0.098902
0.142372
0.194897
0.256728
0.33002
0.419444
0.53342
0.687069
0.909539
1.26429
1.91711
3.44762
9.82026
0.0127879
0.0151361
0.0196563
0.0279878
0.0426451
0.0662409
0.100026
0.143539
0.19597
0.257635
0.330737
0.419983
0.533807
0.687339
0.909735
1.26447
1.91736
3.44814
9.82106
0.0128159
0.0152138
0.0198354
0.0283496
0.043277
0.067163
0.101141
0.144688
0.197024
0.258522
0.33144
0.420511
0.534188
0.687607
0.909934
1.26465
1.91762
3.44869
9.82191
0.0128454
0.0152942
0.0200193
0.0287184
0.0439156
0.0680856
0.102247
0.145821
0.198059
0.259392
0.332128
0.421029
0.534562
0.687874
0.910133
1.26484
1.91789
3.44925
9.82282
0.0128764
0.0153774
0.0202079
0.0290942
0.0445607
0.0690084
0.103343
0.146938
0.199074
0.260245
0.332801
0.421537
0.534931
0.688138
0.910335
1.26503
1.91817
3.44983
9.82379
0.012909
0.0154634
0.0204014
0.0294771
0.045212
0.069931
0.10443
0.148038
0.200071
0.26108
0.333462
0.422035
0.535294
0.688401
0.910539
1.26523
1.91846
3.45043
9.82481
0.0129433
0.0155522
0.0205999
0.0298669
0.0458692
0.0708528
0.105507
0.149122
0.20105
0.261899
0.334108
0.422524
0.535652
0.688662
0.910744
1.26544
1.91876
3.45104
9.82587
0.0129793
0.0156439
0.0208033
0.0302636
0.0465321
0.0717737
0.106574
0.150189
0.202011
0.262701
0.334742
0.423003
0.536005
0.688921
0.910951
1.26565
1.91907
3.45168
9.82699
0.0130169
0.0157386
0.0210117
0.0306672
0.0472004
0.0726931
0.10763
0.151241
0.202954
0.263488
0.335364
0.423475
0.536353
0.689179
0.91116
1.26586
1.91939
3.45233
9.82815
0.0130563
0.0158363
0.0212251
0.0310775
0.0478738
0.0736108
0.108676
0.152276
0.203881
0.264259
0.335973
0.423937
0.536696
0.689436
0.91137
1.26608
1.91971
3.45301
9.82936
0.0130975
0.015937
0.0214437
0.0314946
0.0485521
0.0745263
0.109712
0.153296
0.20479
0.265015
0.336571
0.424392
0.537034
0.68969
0.911582
1.26631
1.92005
3.45369
9.83061
0.0131405
0.0160408
0.0216674
0.0319183
0.0492348
0.0754393
0.110737
0.1543
0.205683
0.265757
0.337156
0.424838
0.537367
0.689944
0.911795
1.26654
1.92039
3.4544
9.83192
0.0131853
0.0161479
0.0218963
0.0323485
0.0499218
0.0763494
0.111752
0.155289
0.20656
0.266484
0.337731
0.425277
0.537696
0.690196
0.912011
1.26677
1.92075
3.45512
9.83327
0.013232
0.0162581
0.0221304
0.0327852
0.0506126
0.0772564
0.112755
0.156263
0.207421
0.267197
0.338295
0.425708
0.538021
0.690447
0.912228
1.26701
1.92111
3.45585
9.83466
0.0132807
0.0163716
0.0223697
0.0332283
0.0513072
0.07816
0.113748
0.157222
0.208267
0.267897
0.338849
0.426132
0.538342
0.690697
0.912446
1.26725
1.92148
3.45661
9.8361
0.0133313
0.0164884
0.0226143
0.0336776
0.052005
0.0790597
0.11473
0.158166
0.209097
0.268584
0.339392
0.426549
0.538659
0.690946
0.912667
1.2675
1.92186
3.45737
9.83758
0.013384
0.0166086
0.0228641
0.034133
0.0527059
0.0799555
0.115701
0.159095
0.209913
0.269258
0.339925
0.426959
0.538972
0.691194
0.912889
1.26775
1.92225
3.45815
9.83911
0.0134387
0.0167322
0.0231193
0.0345944
0.0534095
0.0808469
0.116661
0.16001
0.210714
0.269919
0.340448
0.427362
0.539282
0.691441
0.913112
1.26801
1.92264
3.45894
9.84068
0.0134954
0.0168592
0.0233798
0.0350616
0.0541155
0.0817337
0.117609
0.160911
0.211501
0.270568
0.340962
0.427759
0.539587
0.691687
0.913338
1.26827
1.92304
3.45975
9.84229
0.0135543
0.0169898
0.0236456
0.0355346
0.0548236
0.0826157
0.118547
0.161798
0.212274
0.271204
0.341467
0.42815
0.53989
0.691932
0.913565
1.26854
1.92345
3.46057
9.84394
0.0136153
0.0171239
0.0239167
0.0360132
0.0555336
0.0834926
0.119474
0.16267
0.213033
0.27183
0.341962
0.428534
0.540189
0.692177
0.913793
1.26881
1.92387
3.4614
9.84563
0.0136786
0.0172617
0.0241931
0.0364972
0.0562451
0.0843643
0.120389
0.163529
0.213779
0.272443
0.342449
0.428913
0.540484
0.69242
0.914023
1.26908
1.9243
3.46225
9.84735
0.013744
0.017403
0.0244748
0.0369865
0.0569579
0.0852304
0.121294
0.164375
0.214512
0.273046
0.342928
0.429286
0.540777
0.692663
0.914255
1.26936
1.92473
3.46311
9.84912
0.0138118
0.0175481
0.0247619
0.0374809
0.0576716
0.0860909
0.122187
0.165207
0.215231
0.273638
0.343398
0.429653
0.541067
0.692905
0.914488
1.26964
1.92517
3.46398
9.85092
0.0138819
0.0176969
0.0250542
0.0379802
0.0583861
0.0869455
0.123069
0.166027
0.215939
0.274219
0.34386
0.430015
0.541353
0.693147
0.914723
1.26993
1.92561
3.46486
9.85276
0.0139543
0.0178494
0.0253518
0.0384843
0.0591009
0.087794
0.12394
0.166833
0.216634
0.27479
0.344314
0.430371
0.541637
0.693388
0.91496
1.27022
1.92607
3.46576
9.85464
0.0140291
0.0180057
0.0256546
0.038993
0.0598158
0.0886362
0.124801
0.167627
0.217317
0.27535
0.344761
0.430723
0.541918
0.693628
0.915197
1.27051
1.92652
3.46666
9.85655
0.0141064
0.0181659
0.0259626
0.039506
0.0605307
0.0894721
0.12565
0.168408
0.217988
0.275901
0.3452
0.431069
0.542196
0.693868
0.915437
1.27081
1.92699
3.46758
9.85849
0.0141861
0.01833
0.0262758
0.0400234
0.0612451
0.0903015
0.126489
0.169177
0.218648
0.276442
0.345632
0.431411
0.542472
0.694107
0.915678
1.27111
1.92746
3.46851
9.86047
0.0142684
0.0184979
0.0265941
0.0405447
0.0619589
0.0911242
0.127317
0.169934
0.219296
0.276974
0.346056
0.431747
0.542745
0.694345
0.91592
1.27141
1.92794
3.46945
9.86248
0.0143532
0.0186698
0.0269174
0.0410699
0.0626717
0.09194
0.128134
0.170678
0.219933
0.277496